   2   2   0   0
  0.2560000E+03  0.8000000E-09  0.8000000E-09  0.8000000E-09  0.5000000E-15
  1.000000000000000E-004
  CAR 
 O2 dimer in a box                       
      5.99772218    -34.31322065  301     -5.82472152      1.00000000
    -34.313  0.0000E+00  0.0000E+00  0.0000E+00  0.0000E+00
    -34.179  0.0000E+00  0.0000E+00  0.0000E+00  0.0000E+00
    -34.044  0.0000E+00  0.0000E+00  0.0000E+00  0.0000E+00
    -33.910  0.0000E+00  0.0000E+00  0.0000E+00  0.0000E+00
    -33.776  0.0000E+00  0.0000E+00  0.0000E+00  0.0000E+00
    -33.641  0.0000E+00  0.0000E+00  0.0000E+00  0.0000E+00
    -33.507  0.0000E+00  0.0000E+00  0.0000E+00  0.0000E+00
    -33.373  0.5081E-13  0.0000E+00  0.6828E-14  0.0000E+00
    -33.238  0.4542E-10  0.0000E+00  0.6110E-11  0.0000E+00
    -33.104  0.1677E-07  0.0000E+00  0.2259E-08  0.0000E+00
    -32.970  0.2567E-05  0.0000E+00  0.3471E-06  0.0000E+00
    -32.835  0.1639E-03  0.0000E+00  0.2237E-04  0.0000E+00
    -32.701  0.4399E-02  0.0000E+00  0.6135E-03  0.0000E+00
    -32.566  0.5006E-01  0.0000E+00  0.7340E-02  0.0000E+00
    -32.432  0.2437E+00  0.0000E+00  0.4008E-01  0.0000E+00
    -32.298  0.5111E+00  0.0000E+00  0.1088E+00  0.0000E+00
    -32.163  0.4639E+00  0.2033E-13  0.1711E+00  0.2731E-14
    -32.029  0.1821E+00  0.2028E-10  0.1956E+00  0.2728E-11
    -31.895  0.3076E-01  0.8367E-08  0.1997E+00  0.1127E-08
    -31.760  0.2218E-02  0.1430E-05  0.2000E+00  0.1933E-06
    -31.626  0.6768E-04  0.1019E-03  0.2000E+00  0.1389E-04
    -31.491  0.8662E-06  0.3049E-02  0.2000E+00  0.4236E-03
    -31.357  0.4618E-08  0.3864E-01  0.2000E+00  0.5615E-02
    -31.223  0.1020E-10  0.2092E+00  0.2000E+00  0.3372E-01
    -31.088  0.9254E-14  0.4876E+00  0.2000E+00  0.9924E-01
    -30.954  0.0000E+00  0.4917E+00  0.2000E+00  0.1653E+00
    -30.820  0.0000E+00  0.2145E+00  0.2000E+00  0.1941E+00
    -30.685  0.0000E+00  0.4031E-01  0.2000E+00  0.1996E+00
    -30.551  0.0000E+00  0.3237E-02  0.2000E+00  0.2000E+00
    -30.416  0.0000E+00  0.1101E-03  0.2000E+00  0.2000E+00
    -30.282  0.0000E+00  0.1572E-05  0.2000E+00  0.2000E+00
    -30.148  0.0000E+00  0.9363E-08  0.2000E+00  0.2000E+00
    -30.013  0.0000E+00  0.2310E-10  0.2000E+00  0.2000E+00
    -29.879  0.0000E+00  0.2347E-13  0.2000E+00  0.2000E+00
    -29.745  0.0000E+00  0.0000E+00  0.2000E+00  0.2000E+00
    -29.610  0.0000E+00  0.0000E+00  0.2000E+00  0.2000E+00
    -29.476  0.0000E+00  0.0000E+00  0.2000E+00  0.2000E+00
    -29.342  0.0000E+00  0.0000E+00  0.2000E+00  0.2000E+00
    -29.207  0.0000E+00  0.0000E+00  0.2000E+00  0.2000E+00
    -29.073  0.0000E+00  0.0000E+00  0.2000E+00  0.2000E+00
    -28.938  0.0000E+00  0.0000E+00  0.2000E+00  0.2000E+00
    -28.804  0.0000E+00  0.0000E+00  0.2000E+00  0.2000E+00
    -28.670  0.0000E+00  0.0000E+00  0.2000E+00  0.2000E+00
    -28.535  0.0000E+00  0.0000E+00  0.2000E+00  0.2000E+00
    -28.401  0.0000E+00  0.0000E+00  0.2000E+00  0.2000E+00
    -28.267  0.0000E+00  0.0000E+00  0.2000E+00  0.2000E+00
    -28.132  0.0000E+00  0.0000E+00  0.2000E+00  0.2000E+00
    -27.998  0.0000E+00  0.0000E+00  0.2000E+00  0.2000E+00
    -27.863  0.0000E+00  0.0000E+00  0.2000E+00  0.2000E+00
    -27.729  0.0000E+00  0.0000E+00  0.2000E+00  0.2000E+00
    -27.595  0.0000E+00  0.0000E+00  0.2000E+00  0.2000E+00
    -27.460  0.0000E+00  0.0000E+00  0.2000E+00  0.2000E+00
    -27.326  0.0000E+00  0.0000E+00  0.2000E+00  0.2000E+00
    -27.192  0.0000E+00  0.0000E+00  0.2000E+00  0.2000E+00
    -27.057  0.0000E+00  0.0000E+00  0.2000E+00  0.2000E+00
    -26.923  0.0000E+00  0.0000E+00  0.2000E+00  0.2000E+00
    -26.789  0.0000E+00  0.0000E+00  0.2000E+00  0.2000E+00
    -26.654  0.0000E+00  0.0000E+00  0.2000E+00  0.2000E+00
    -26.520  0.0000E+00  0.0000E+00  0.2000E+00  0.2000E+00
    -26.385  0.0000E+00  0.0000E+00  0.2000E+00  0.2000E+00
    -26.251  0.0000E+00  0.0000E+00  0.2000E+00  0.2000E+00
    -26.117  0.0000E+00  0.0000E+00  0.2000E+00  0.2000E+00
    -25.982  0.0000E+00  0.0000E+00  0.2000E+00  0.2000E+00
    -25.848  0.0000E+00  0.0000E+00  0.2000E+00  0.2000E+00
    -25.714  0.0000E+00  0.0000E+00  0.2000E+00  0.2000E+00
    -25.579  0.0000E+00  0.0000E+00  0.2000E+00  0.2000E+00
    -25.445  0.0000E+00  0.0000E+00  0.2000E+00  0.2000E+00
    -25.310  0.0000E+00  0.0000E+00  0.2000E+00  0.2000E+00
    -25.176  0.0000E+00  0.0000E+00  0.2000E+00  0.2000E+00
    -25.042  0.0000E+00  0.0000E+00  0.2000E+00  0.2000E+00
    -24.907  0.0000E+00  0.0000E+00  0.2000E+00  0.2000E+00
    -24.773  0.0000E+00  0.0000E+00  0.2000E+00  0.2000E+00
    -24.639  0.0000E+00  0.0000E+00  0.2000E+00  0.2000E+00
    -24.504  0.0000E+00  0.0000E+00  0.2000E+00  0.2000E+00
    -24.370  0.0000E+00  0.0000E+00  0.2000E+00  0.2000E+00
    -24.235  0.0000E+00  0.0000E+00  0.2000E+00  0.2000E+00
    -24.101  0.0000E+00  0.0000E+00  0.2000E+00  0.2000E+00
    -23.967  0.0000E+00  0.0000E+00  0.2000E+00  0.2000E+00
    -23.832  0.0000E+00  0.0000E+00  0.2000E+00  0.2000E+00
    -23.698  0.0000E+00  0.0000E+00  0.2000E+00  0.2000E+00
    -23.564  0.0000E+00  0.0000E+00  0.2000E+00  0.2000E+00
    -23.429  0.0000E+00  0.0000E+00  0.2000E+00  0.2000E+00
    -23.295  0.0000E+00  0.0000E+00  0.2000E+00  0.2000E+00
    -23.161  0.0000E+00  0.0000E+00  0.2000E+00  0.2000E+00
    -23.026  0.0000E+00  0.0000E+00  0.2000E+00  0.2000E+00
    -22.892  0.0000E+00  0.0000E+00  0.2000E+00  0.2000E+00
    -22.757  0.0000E+00  0.0000E+00  0.2000E+00  0.2000E+00
    -22.623  0.0000E+00  0.0000E+00  0.2000E+00  0.2000E+00
    -22.489  0.0000E+00  0.0000E+00  0.2000E+00  0.2000E+00
    -22.354  0.0000E+00  0.0000E+00  0.2000E+00  0.2000E+00
    -22.220  0.0000E+00  0.0000E+00  0.2000E+00  0.2000E+00
    -22.086  0.0000E+00  0.0000E+00  0.2000E+00  0.2000E+00
    -21.951  0.0000E+00  0.0000E+00  0.2000E+00  0.2000E+00
    -21.817  0.0000E+00  0.0000E+00  0.2000E+00  0.2000E+00
    -21.682  0.0000E+00  0.0000E+00  0.2000E+00  0.2000E+00
    -21.548  0.1099E-13  0.0000E+00  0.2000E+00  0.2000E+00
    -21.414  0.1185E-10  0.0000E+00  0.2000E+00  0.2000E+00
    -21.279  0.5259E-08  0.0000E+00  0.2000E+00  0.2000E+00
    -21.145  0.9668E-06  0.0000E+00  0.2000E+00  0.2000E+00
    -21.011  0.7404E-04  0.0000E+00  0.2000E+00  0.2000E+00
    -20.876  0.2379E-02  0.0000E+00  0.2003E+00  0.2000E+00
    -20.742  0.3235E-01  0.0000E+00  0.2047E+00  0.2000E+00
    -20.608  0.1878E+00  0.0000E+00  0.2299E+00  0.2000E+00
    -20.473  0.4693E+00  0.0000E+00  0.2930E+00  0.2000E+00
    -20.339  0.5072E+00  0.0000E+00  0.3611E+00  0.2000E+00
    -20.204  0.2372E+00  0.0000E+00  0.3930E+00  0.2000E+00
    -20.070  0.4779E-01  0.0000E+00  0.3994E+00  0.2000E+00
    -19.936  0.4119E-02  0.0000E+00  0.4000E+00  0.2000E+00
    -19.801  0.1504E-03  0.6610E-15  0.4000E+00  0.2000E+00
    -19.667  0.2309E-05  0.9850E-12  0.4000E+00  0.2000E+00
    -19.533  0.1478E-07  0.6070E-09  0.4000E+00  0.2000E+00
    -19.398  0.3924E-10  0.1547E-06  0.4000E+00  0.2000E+00
    -19.264  0.4296E-13  0.1638E-04  0.4000E+00  0.2000E+00
    -19.129  0.0000E+00  0.7259E-03  0.4000E+00  0.2001E+00
    -18.995  0.0000E+00  0.1357E-01  0.4000E+00  0.2019E+00
    -18.861  0.0000E+00  0.1079E+00  0.4000E+00  0.2164E+00
    -18.726  0.0000E+00  0.3685E+00  0.4000E+00  0.2659E+00
    -18.592  0.0000E+00  0.5434E+00  0.4000E+00  0.3390E+00
    -18.458  0.0000E+00  0.3469E+00  0.4000E+00  0.3856E+00
    -18.323  0.0000E+00  0.9560E-01  0.4000E+00  0.3984E+00
    -18.189  0.0000E+00  0.1130E-01  0.4000E+00  0.3999E+00
    -18.054  0.0000E+00  0.5684E-03  0.4000E+00  0.4000E+00
    -17.920  0.0000E+00  0.1205E-04  0.4000E+00  0.4000E+00
    -17.786  0.0000E+00  0.1068E-06  0.4000E+00  0.4000E+00
    -17.651  0.0000E+00  0.3932E-09  0.4000E+00  0.4000E+00
    -17.517  0.0000E+00  0.5985E-12  0.4000E+00  0.4000E+00
    -17.383  0.0000E+00  0.3305E-15  0.4000E+00  0.4000E+00
    -17.248  0.0000E+00  0.0000E+00  0.4000E+00  0.4000E+00
    -17.114  0.0000E+00  0.0000E+00  0.4000E+00  0.4000E+00
    -16.980  0.0000E+00  0.0000E+00  0.4000E+00  0.4000E+00
    -16.845  0.0000E+00  0.0000E+00  0.4000E+00  0.4000E+00
    -16.711  0.0000E+00  0.0000E+00  0.4000E+00  0.4000E+00
    -16.576  0.0000E+00  0.0000E+00  0.4000E+00  0.4000E+00
    -16.442  0.0000E+00  0.0000E+00  0.4000E+00  0.4000E+00
    -16.308  0.0000E+00  0.0000E+00  0.4000E+00  0.4000E+00
    -16.173  0.0000E+00  0.0000E+00  0.4000E+00  0.4000E+00
    -16.039  0.0000E+00  0.0000E+00  0.4000E+00  0.4000E+00
    -15.905  0.0000E+00  0.0000E+00  0.4000E+00  0.4000E+00
    -15.770  0.0000E+00  0.0000E+00  0.4000E+00  0.4000E+00
    -15.636  0.0000E+00  0.0000E+00  0.4000E+00  0.4000E+00
    -15.501  0.0000E+00  0.0000E+00  0.4000E+00  0.4000E+00
    -15.367  0.0000E+00  0.0000E+00  0.4000E+00  0.4000E+00
    -15.233  0.0000E+00  0.0000E+00  0.4000E+00  0.4000E+00
    -15.098  0.0000E+00  0.0000E+00  0.4000E+00  0.4000E+00
    -14.964  0.0000E+00  0.0000E+00  0.4000E+00  0.4000E+00
    -14.830  0.0000E+00  0.0000E+00  0.4000E+00  0.4000E+00
    -14.695  0.0000E+00  0.0000E+00  0.4000E+00  0.4000E+00
    -14.561  0.0000E+00  0.0000E+00  0.4000E+00  0.4000E+00
    -14.426  0.0000E+00  0.0000E+00  0.4000E+00  0.4000E+00
    -14.292  0.2479E-13  0.0000E+00  0.4000E+00  0.4000E+00
    -14.158  0.2421E-10  0.0000E+00  0.4000E+00  0.4000E+00
    -14.023  0.9759E-08  0.0000E+00  0.4000E+00  0.4000E+00
    -13.889  0.1634E-05  0.0000E+00  0.4000E+00  0.4000E+00
    -13.755  0.1146E-03  0.0000E+00  0.4000E+00  0.4000E+00
    -13.620  0.3427E-02  0.0000E+00  0.4005E+00  0.4000E+00
    -13.486  0.4498E-01  0.0000E+00  0.4065E+00  0.4000E+00
    -13.352  0.2741E+00  0.4999E-13  0.4434E+00  0.4000E+00
    -13.217  0.8432E+00  0.4480E-10  0.5566E+00  0.4000E+00
    -13.083  0.1400E+01  0.1657E-07  0.7447E+00  0.4000E+00
    -12.948  0.1239E+01  0.2541E-05  0.9112E+00  0.4000E+00
    -12.814  0.5419E+00  0.1626E-03  0.9840E+00  0.4000E+00
    -12.680  0.1091E+00  0.4372E-02  0.9987E+00  0.4006E+00
    -12.545  0.9658E-02  0.4984E-01  0.9999E+00  0.4073E+00
    -12.411  0.3666E-03  0.2430E+00  0.1000E+01  0.4400E+00
    -12.277  0.5873E-05  0.5107E+00  0.1000E+01  0.5086E+00
    -12.142  0.3933E-07  0.4644E+00  0.1000E+01  0.5710E+00
    -12.008  0.1093E-09  0.1826E+00  0.1000E+01  0.5955E+00
    -11.873  0.1256E-12  0.3092E-01  0.1000E+01  0.5997E+00
    -11.739  0.0000E+00  0.2586E-02  0.1000E+01  0.6000E+00
    -11.605  0.0000E+00  0.9383E-02  0.1000E+01  0.6013E+00
    -11.470  0.0000E+00  0.1042E+00  0.1000E+01  0.6153E+00
    -11.336  0.0000E+00  0.4987E+00  0.1000E+01  0.6823E+00
    -11.202  0.0000E+00  0.1029E+01  0.1000E+01  0.8205E+00
    -11.067  0.0000E+00  0.9181E+00  0.1000E+01  0.9439E+00
    -10.933  0.0000E+00  0.3544E+00  0.1000E+01  0.9915E+00
    -10.799  0.0000E+00  0.5886E-01  0.1000E+01  0.9994E+00
    -10.664  0.0000E+00  0.4173E-02  0.1000E+01  0.1000E+01
    -10.530  0.0000E+00  0.1251E-03  0.1000E+01  0.1000E+01
    -10.395  0.0000E+00  0.1574E-05  0.1000E+01  0.1000E+01
    -10.261  0.0000E+00  0.8243E-08  0.1000E+01  0.1000E+01
    -10.127  0.0000E+00  0.1788E-10  0.1000E+01  0.1000E+01
     -9.992  0.0000E+00  0.1586E-13  0.1000E+01  0.1000E+01
     -9.858  0.0000E+00  0.0000E+00  0.1000E+01  0.1000E+01
     -9.724  0.0000E+00  0.0000E+00  0.1000E+01  0.1000E+01
     -9.589  0.0000E+00  0.0000E+00  0.1000E+01  0.1000E+01
     -9.455  0.0000E+00  0.0000E+00  0.1000E+01  0.1000E+01
     -9.320  0.0000E+00  0.0000E+00  0.1000E+01  0.1000E+01
     -9.186  0.0000E+00  0.0000E+00  0.1000E+01  0.1000E+01
     -9.052  0.0000E+00  0.0000E+00  0.1000E+01  0.1000E+01
     -8.917  0.0000E+00  0.0000E+00  0.1000E+01  0.1000E+01
     -8.783  0.0000E+00  0.0000E+00  0.1000E+01  0.1000E+01
     -8.649  0.0000E+00  0.0000E+00  0.1000E+01  0.1000E+01
     -8.514  0.0000E+00  0.0000E+00  0.1000E+01  0.1000E+01
     -8.380  0.0000E+00  0.0000E+00  0.1000E+01  0.1000E+01
     -8.245  0.0000E+00  0.0000E+00  0.1000E+01  0.1000E+01
     -8.111  0.0000E+00  0.0000E+00  0.1000E+01  0.1000E+01
     -7.977  0.0000E+00  0.0000E+00  0.1000E+01  0.1000E+01
     -7.842  0.2280E-13  0.0000E+00  0.1000E+01  0.1000E+01
     -7.708  0.2448E-10  0.0000E+00  0.1000E+01  0.1000E+01
     -7.574  0.1082E-07  0.0000E+00  0.1000E+01  0.1000E+01
     -7.439  0.1980E-05  0.0000E+00  0.1000E+01  0.1000E+01
     -7.305  0.1510E-03  0.0000E+00  0.1000E+01  0.1000E+01
     -7.171  0.4830E-02  0.0000E+00  0.1001E+01  0.1000E+01
     -7.036  0.6540E-01  0.0000E+00  0.1009E+01  0.1000E+01
     -6.902  0.3781E+00  0.0000E+00  0.1060E+01  0.1000E+01
     -6.767  0.9409E+00  0.0000E+00  0.1187E+01  0.1000E+01
     -6.633  0.1013E+01  0.0000E+00  0.1323E+01  0.1000E+01
     -6.499  0.4716E+00  0.0000E+00  0.1386E+01  0.1000E+01
     -6.364  0.9464E-01  0.0000E+00  0.1399E+01  0.1000E+01
     -6.230  0.8121E-02  0.0000E+00  0.1400E+01  0.1000E+01
     -6.096  0.2954E-03  0.0000E+00  0.1400E+01  0.1000E+01
     -5.961  0.4514E-05  0.0000E+00  0.1400E+01  0.1000E+01
     -5.827  0.2878E-07  0.0000E+00  0.1400E+01  0.1000E+01
     -5.692  0.7606E-10  0.0000E+00  0.1400E+01  0.1000E+01
     -5.558  0.8295E-13  0.3982E-13  0.1400E+01  0.1000E+01
     -5.424  0.0000E+00  0.3997E-10  0.1400E+01  0.1000E+01
     -5.289  0.0000E+00  0.1652E-07  0.1400E+01  0.1000E+01
     -5.155  0.0000E+00  0.2830E-05  0.1400E+01  0.1000E+01
     -5.021  0.0000E+00  0.2021E-03  0.1400E+01  0.1000E+01
     -4.886  0.0000E+00  0.6058E-02  0.1400E+01  0.1001E+01
     -4.752  0.0000E+00  0.7690E-01  0.1400E+01  0.1011E+01
     -4.617  0.0000E+00  0.4171E+00  0.1400E+01  0.1067E+01
     -4.483  0.0000E+00  0.9742E+00  0.1400E+01  0.1198E+01
     -4.349  0.0000E+00  0.9843E+00  0.1400E+01  0.1330E+01
     -4.214  0.0000E+00  0.4303E+00  0.1400E+01  0.1388E+01
     -4.080  0.0000E+00  0.8101E-01  0.1400E+01  0.1399E+01
     -3.946  0.0000E+00  0.6518E-02  0.1400E+01  0.1400E+01
     -3.811  0.0000E+00  0.2221E-03  0.1400E+01  0.1400E+01
     -3.677  0.0000E+00  0.3179E-05  0.1400E+01  0.1400E+01
     -3.543  0.0000E+00  0.1896E-07  0.1400E+01  0.1400E+01
     -3.408  0.0000E+00  0.4689E-10  0.1400E+01  0.1400E+01
     -3.274  0.0000E+00  0.4792E-13  0.1400E+01  0.1400E+01
     -3.139  0.0000E+00  0.0000E+00  0.1400E+01  0.1400E+01
     -3.005  0.0000E+00  0.0000E+00  0.1400E+01  0.1400E+01
     -2.871  0.0000E+00  0.0000E+00  0.1400E+01  0.1400E+01
     -2.736  0.0000E+00  0.0000E+00  0.1400E+01  0.1400E+01
     -2.602  0.0000E+00  0.0000E+00  0.1400E+01  0.1400E+01
     -2.468  0.0000E+00  0.0000E+00  0.1400E+01  0.1400E+01
     -2.333  0.0000E+00  0.0000E+00  0.1400E+01  0.1400E+01
     -2.199  0.0000E+00  0.0000E+00  0.1400E+01  0.1400E+01
     -2.064  0.0000E+00  0.0000E+00  0.1400E+01  0.1400E+01
     -1.930  0.0000E+00  0.0000E+00  0.1400E+01  0.1400E+01
     -1.796  0.0000E+00  0.0000E+00  0.1400E+01  0.1400E+01
     -1.661  0.0000E+00  0.0000E+00  0.1400E+01  0.1400E+01
     -1.527  0.1818E-14  0.0000E+00  0.1400E+01  0.1400E+01
     -1.393  0.2409E-11  0.1570E-14  0.1400E+01  0.1400E+01
     -1.258  0.1322E-08  0.2080E-11  0.1400E+01  0.1400E+01
     -1.124  0.3000E-06  0.1163E-08  0.1400E+01  0.1400E+01
     -0.990  0.2833E-04  0.2691E-06  0.1400E+01  0.1400E+01
     -0.855  0.1120E-02  0.2590E-04  0.1400E+01  0.1400E+01
     -0.721  0.1870E-01  0.1044E-02  0.1403E+01  0.1400E+01
     -0.586  0.1331E+00  0.1775E-01  0.1421E+01  0.1403E+01
     -0.452  0.4068E+00  0.1287E+00  0.1475E+01  0.1420E+01
     -0.318  0.5373E+00  0.4006E+00  0.1547E+01  0.1474E+01
     -0.183  0.3072E+00  0.5389E+00  0.1589E+01  0.1546E+01
     -0.049  0.7580E-01  0.3138E+00  0.1599E+01  0.1588E+01
      0.085  0.8014E-02  0.7885E-01  0.1600E+01  0.1599E+01
      0.220  0.3599E-03  0.8492E-02  0.1600E+01  0.1600E+01
      0.354  0.6806E-05  0.3886E-03  0.1600E+01  0.1600E+01
      0.489  0.5458E-07  0.7489E-05  0.1600E+01  0.1600E+01
      0.623  0.1986E-06  0.6030E-07  0.1600E+01  0.1600E+01
      0.757  0.2013E-04  0.2028E-09  0.1600E+01  0.1600E+01
      0.892  0.8550E-03  0.6976E-09  0.1600E+01  0.1600E+01
      1.026  0.1532E-01  0.1741E-06  0.1602E+01  0.1600E+01
      1.160  0.1169E+00  0.1810E-04  0.1618E+01  0.1600E+01
      1.295  0.3843E+00  0.7895E-03  0.1670E+01  0.1600E+01
      1.429  0.5680E+00  0.1470E-01  0.1746E+01  0.1602E+01
      1.564  0.5462E+00  0.1214E+00  0.1819E+01  0.1618E+01
      1.698  0.8825E+00  0.4905E+00  0.1938E+01  0.1684E+01
      1.832  0.1488E+01  0.1188E+01  0.2138E+01  0.1844E+01
      1.967  0.1692E+01  0.2019E+01  0.2365E+01  0.2115E+01
      2.101  0.1436E+01  0.2234E+01  0.2558E+01  0.2415E+01
      2.235  0.1002E+01  0.1562E+01  0.2693E+01  0.2625E+01
      2.370  0.5675E+00  0.8500E+00  0.2769E+01  0.2739E+01
      2.504  0.1969E+00  0.3576E+00  0.2795E+01  0.2787E+01
      2.638  0.4384E-01  0.8381E-01  0.2801E+01  0.2799E+01
      2.773  0.9752E-01  0.9008E-02  0.2814E+01  0.2800E+01
      2.907  0.3461E+00  0.4602E-03  0.2861E+01  0.2800E+01
      3.042  0.5433E+00  0.1548E-02  0.2934E+01  0.2800E+01
      3.176  0.3693E+00  0.2362E-01  0.2983E+01  0.2803E+01
      3.310  0.1085E+00  0.1544E+00  0.2998E+01  0.2824E+01
      3.445  0.1677E-01  0.4342E+00  0.3000E+01  0.2882E+01
      3.579  0.3988E-01  0.5299E+00  0.3006E+01  0.2954E+01
      3.713  0.2108E+00  0.3084E+00  0.3034E+01  0.2995E+01
      3.848  0.4889E+00  0.2451E+00  0.3100E+01  0.3028E+01
      3.982  0.4904E+00  0.4700E+00  0.3166E+01  0.3091E+01
      4.117  0.2129E+00  0.5113E+00  0.3194E+01  0.3160E+01
      4.251  0.3979E-01  0.2437E+00  0.3200E+01  0.3193E+01
      4.385  0.3178E-02  0.5006E-01  0.3200E+01  0.3199E+01
      4.520  0.1075E-03  0.4399E-02  0.3200E+01  0.3200E+01
      4.654  0.1527E-05  0.1639E-03  0.3200E+01  0.3200E+01
      4.788  0.9043E-08  0.2567E-05  0.3200E+01  0.3200E+01
      4.923  0.2219E-10  0.1677E-07  0.3200E+01  0.3200E+01
      5.057  0.2247E-13  0.4542E-10  0.3200E+01  0.3200E+01
      5.192  0.0000E+00  0.5090E-13  0.3200E+01  0.3200E+01
      5.326  0.0000E+00  0.0000E+00  0.3200E+01  0.3200E+01
      5.460  0.0000E+00  0.0000E+00  0.3200E+01  0.3200E+01
      5.595  0.0000E+00  0.0000E+00  0.3200E+01  0.3200E+01
      5.729  0.0000E+00  0.0000E+00  0.3200E+01  0.3200E+01
      5.863  0.0000E+00  0.0000E+00  0.3200E+01  0.3200E+01
      5.998  0.0000E+00  0.0000E+00  0.3200E+01  0.3200E+01
