    2    2    5    2
  0.2560000E+03  0.8000000E-09  0.8000000E-09  0.8000000E-09  0.5000000E-15
  1.000000000000000E-004
  CAR 
 O2 dimer in a box                       
     12      1     16
 
  0.0000000E+00  0.0000000E+00  0.0000000E+00  0.1000000E+01
    1      -32.313221    -31.086990   1.000000   1.000000
    2      -20.460669    -18.663988   1.000000   1.000000
    3      -13.219477    -12.291827   1.000000   1.000000
    4      -13.063333    -11.219849   1.000000   1.000000
    5      -13.063333    -11.219849   1.000000   1.000000
    6       -6.755611     -4.481461   1.000000   0.000000
    7       -6.755611     -4.481461   1.000000   0.000000
    8       -0.407349     -0.270056   0.000000   0.000000
    9        1.350525      1.757105   0.000000   0.000000
   10        1.762986      1.953356   0.000000   0.000000
   11        1.762986      1.953356   0.000000   0.000000
   12        1.955712      2.049139   0.000000   0.000000
   13        1.999046      2.049574   0.000000   0.000000
   14        2.222778      2.285694   0.000000   0.000000
   15        2.979627      3.476012   0.000000   0.000000
   16        3.848321      3.997722   0.000000   0.000000
