       N       E                     dE             d eps       ncg     rms          rms(c)
DAV:   1     0.862750923451E+02    0.86275E+02   -0.29260E+03    64   0.366E+02
DAV:   2    -0.569954643682E+01   -0.91975E+02   -0.90855E+02   128   0.105E+02
DAV:   3    -0.977975472502E+01   -0.40802E+01   -0.40802E+01    64   0.321E+01
DAV:   4    -0.981247588709E+01   -0.32721E-01   -0.32721E-01    80   0.279E+00
DAV:   5    -0.981257246613E+01   -0.96579E-04   -0.96579E-04   128   0.135E-01    0.634E+00
DAV:   6    -0.962889565583E+01    0.18368E+00   -0.11444E+00    96   0.672E+00    0.291E+00
DAV:   7    -0.984726688902E+01   -0.21837E+00   -0.18820E-01    64   0.288E+00    0.140E+00
DAV:   8    -0.984493954349E+01    0.23273E-02   -0.66186E-02    80   0.152E+00    0.392E-01
DAV:   9    -0.985175271839E+01   -0.68132E-02   -0.37837E-03    64   0.427E-01    0.182E-01
DAV:  10    -0.985287274640E+01   -0.11200E-02   -0.56635E-04    64   0.165E-01    0.376E-02
DAV:  11    -0.985304901797E+01   -0.17627E-03   -0.62892E-05    64   0.575E-02    0.148E-02
DAV:  12    -0.985322228224E+01   -0.17326E-03   -0.20951E-05    64   0.300E-02    0.767E-03
DAV:  13    -0.985334569249E+01   -0.12341E-03   -0.64846E-06    64   0.153E-02    0.472E-03
DAV:  14    -0.985351297863E+01   -0.16729E-03   -0.82103E-06    64   0.130E-02    0.381E-03
DAV:  15    -0.985357143688E+01   -0.58458E-04   -0.19096E-06    64   0.639E-03
   1 F= -.98535714E+01 E0= -.98535714E+01  d E =-.985357E+01  mag=     2.0000
       N       E                     dE             d eps       ncg     rms          rms(c)
DAV:   1    -0.961190767221E+01    0.24161E+00   -0.33790E+01    80   0.351E+01    0.211E+00
DAV:   2    -0.960758710493E+01    0.43206E-02   -0.29384E-01    96   0.361E+00    0.789E-01
DAV:   3    -0.961809977021E+01   -0.10513E-01   -0.19836E-02    80   0.967E-01    0.329E-01
DAV:   4    -0.962127436638E+01   -0.31746E-02   -0.39909E-03    64   0.395E-01    0.116E-01
DAV:   5    -0.962253569044E+01   -0.12613E-02   -0.25846E-04    64   0.115E-01    0.580E-02
DAV:   6    -0.962295726284E+01   -0.42157E-03   -0.97237E-05    64   0.636E-02    0.127E-02
DAV:   7    -0.962306809134E+01   -0.11083E-03   -0.12876E-05    64   0.260E-02    0.590E-03
DAV:   8    -0.962317861364E+01   -0.11052E-03   -0.73750E-06    64   0.149E-02    0.403E-03
DAV:   9    -0.962329816581E+01   -0.11955E-03   -0.95253E-06    64   0.139E-02    0.215E-03
DAV:  10    -0.962334760116E+01   -0.49435E-04   -0.29538E-06    64   0.818E-03
   2 F= -.96233476E+01 E0= -.96233476E+01  d E =0.230224E+00  mag=     2.0000
       N       E                     dE             d eps       ncg     rms          rms(c)
DAV:   1    -0.984023712933E+01   -0.21694E+00   -0.24764E+01    64   0.305E+01    0.177E+00
DAV:   2    -0.984625654036E+01   -0.60194E-02   -0.25891E-01   128   0.338E+00    0.800E-01
DAV:   3    -0.985701983204E+01   -0.10763E-01   -0.18363E-02   112   0.860E-01    0.314E-01
DAV:   4    -0.986013363445E+01   -0.31138E-02   -0.71699E-03    64   0.471E-01    0.943E-02
DAV:   5    -0.986067677771E+01   -0.54314E-03   -0.41633E-04    64   0.126E-01    0.534E-02
DAV:   6    -0.986075382588E+01   -0.77048E-04   -0.12036E-04    64   0.672E-02
   3 F= -.98607538E+01 E0= -.98607538E+01  d E =-.718239E-02  mag=     2.0000
