<?xml version="1.0" encoding="ISO-8859-1"?>
<modeling>
 <generator>
  <i name="program" type="string">vasp </i>
  <i name="version" type="string">5.4.1  </i>
  <i name="subversion" type="string">24Jun15 (build Apr 04 2016 10:44:54) complex                          parallel </i>
  <i name="platform" type="string">Titan </i>
  <i name="date" type="string">2018 12 04 </i>
  <i name="time" type="string">13:32:38 </i>
 </generator>
 <incar>
  <i type="string" name="SYSTEM"> O2 dimer in a box</i>
  <i type="string" name="PREC">normal</i>
  <i type="int" name="ISPIN">     2</i>
  <i type="int" name="IBRION">     2</i>
  <i type="int" name="NSW">     5</i>
  <i type="int" name="ISMEAR">     0</i>
  <v type="int" name="KPOINT_BSE">    -1     0     0     0</v>
 </incar>
 <kpoints>
  <varray name="kpointlist" >
   <v>       0.00000000       0.00000000       0.00000000 </v>
  </varray>
  <varray name="weights" >
   <v>       1.00000000 </v>
  </varray>
 </kpoints>
 <parameters>
  <separator name="general" >
   <i type="string" name="SYSTEM">O2 dimer in a box</i>
   <i type="logical" name="LCOMPAT"> F  </i>
  </separator>
  <separator name="electronic" >
   <i type="string" name="PREC">normal</i>
   <i name="ENMAX">    400.00000000</i>
   <i name="ENAUG">    605.39200000</i>
   <i name="EDIFF">      0.00010000</i>
   <i type="int" name="IALGO">    38</i>
   <i type="int" name="IWAVPR">    11</i>
   <i type="int" name="NBANDS">    16</i>
   <i name="NELECT">     12.00000000</i>
   <i type="int" name="TURBO">     0</i>
   <i type="int" name="IRESTART">     0</i>
   <i type="int" name="NREBOOT">     0</i>
   <i type="int" name="NMIN">     0</i>
   <i name="EREF">      0.00000000</i>
   <separator name="electronic smearing" >
    <i type="int" name="ISMEAR">     0</i>
    <i name="SIGMA">      0.20000000</i>
    <i name="KSPACING">      0.50000000</i>
    <i type="logical" name="KGAMMA"> T  </i>
   </separator>
   <separator name="electronic projectors" >
    <i type="logical" name="LREAL"> F  </i>
    <v name="ROPT">      0.00000000</v>
    <i type="int" name="LMAXPAW">  -100</i>
    <i type="int" name="LMAXMIX">     2</i>
    <i type="logical" name="NLSPLINE"> F  </i>
   </separator>
   <separator name="electronic startup" >
    <i type="int" name="ISTART">     0</i>
    <i type="int" name="ICHARG">     2</i>
    <i type="int" name="INIWAV">     1</i>
   </separator>
   <separator name="electronic spin" >
    <i type="int" name="ISPIN">     2</i>
    <i type="logical" name="LNONCOLLINEAR"> F  </i>
    <v name="MAGMOM">      1.00000000      1.00000000</v>
    <i name="NUPDOWN">     -1.00000000</i>
    <i type="logical" name="LSORBIT"> F  </i>
    <v name="SAXIS">      0.00000000      0.00000000      1.00000000</v>
    <i type="logical" name="LSPIRAL"> F  </i>
    <v name="QSPIRAL">      0.00000000      0.00000000      0.00000000</v>
    <i type="logical" name="LZEROZ"> F  </i>
   </separator>
   <separator name="electronic exchange-correlation" >
    <i type="logical" name="LASPH"> F  </i>
    <i type="logical" name="LMETAGGA"> F  </i>
   </separator>
   <separator name="electronic convergence" >
    <i type="int" name="NELM">    60</i>
    <i type="int" name="NELMDL">    -5</i>
    <i type="int" name="NELMIN">     2</i>
    <i name="ENINI">    400.00000000</i>
    <separator name="electronic convergence detail" >
     <i type="logical" name="LDIAG"> T  </i>
     <i type="logical" name="LSUBROT"> F  </i>
     <i name="WEIMIN">      0.00100000</i>
     <i name="EBREAK">      0.00000156</i>
     <i name="DEPER">      0.30000000</i>
     <i type="int" name="NRMM">     4</i>
     <i name="TIME">      0.40000000</i>
    </separator>
   </separator>
   <separator name="electronic mixer" >
    <i name="AMIX">      0.40000000</i>
    <i name="BMIX">      1.00000000</i>
    <i name="AMIN">      0.10000000</i>
    <i name="AMIX_MAG">      1.60000000</i>
    <i name="BMIX_MAG">      1.00000000</i>
    <separator name="electronic mixer details" >
     <i type="int" name="IMIX">     4</i>
     <i type="logical" name="MIXFIRST"> F  </i>
     <i type="int" name="MAXMIX">   -45</i>
     <i name="WC">    100.00000000</i>
     <i type="int" name="INIMIX">     1</i>
     <i type="int" name="MIXPRE">     1</i>
     <i type="int" name="MREMOVE">     5</i>
    </separator>
   </separator>
   <separator name="electronic dipolcorrection" >
    <i type="logical" name="LDIPOL"> F  </i>
    <i type="logical" name="LMONO"> F  </i>
    <i type="int" name="IDIPOL">     0</i>
    <i name="EPSILON">      1.00000000</i>
    <v name="DIPOL">   -100.00000000   -100.00000000   -100.00000000</v>
    <i name="EFIELD">      0.00000000</i>
   </separator>
  </separator>
  <separator name="grids" >
   <i type="int" name="NGX">    40</i>
   <i type="int" name="NGY">    40</i>
   <i type="int" name="NGZ">    40</i>
   <i type="int" name="NGXF">    80</i>
   <i type="int" name="NGYF">    80</i>
   <i type="int" name="NGZF">    80</i>
   <i type="logical" name="ADDGRID"> F  </i>
  </separator>
  <separator name="ionic" >
   <i type="int" name="NSW">     5</i>
   <i type="int" name="IBRION">     2</i>
   <i type="int" name="ISIF">     2</i>
   <i name="PSTRESS">      0.00000000</i>
   <i name="EDIFFG">      0.00100000</i>
   <i type="int" name="NFREE">     1</i>
   <i name="POTIM">      0.50000000</i>
   <i name="SMASS">     -3.00000000</i>
   <i name="SCALEE">      1.00000000</i>
  </separator>
  <separator name="ionic md" >
   <i name="TEBEG">      0.00010000</i>
   <i name="TEEND">      0.00010000</i>
   <i type="int" name="NBLOCK">     1</i>
   <i type="int" name="KBLOCK">     5</i>
   <i type="int" name="NPACO">   256</i>
   <i name="APACO">     16.00000000</i>
  </separator>
  <separator name="symmetry" >
   <i type="int" name="ISYM">     2</i>
   <i name="SYMPREC">      0.00001000</i>
  </separator>
  <separator name="dos" >
   <i type="logical" name="LORBIT"> F  </i>
   <v name="RWIGS">     -1.00000000</v>
   <i type="int" name="NEDOS">   301</i>
   <i name="EMIN">     10.00000000</i>
   <i name="EMAX">    -10.00000000</i>
   <i name="EFERMI">      0.00000000</i>
  </separator>
  <separator name="writing" >
   <i type="int" name="NWRITE">     2</i>
   <i type="logical" name="LWAVE"> T  </i>
   <i type="logical" name="LCHARG"> T  </i>
   <i type="logical" name="LPARD"> F  </i>
   <i type="logical" name="LVTOT"> F  </i>
   <i type="logical" name="LVHAR"> F  </i>
   <i type="logical" name="LELF"> F  </i>
   <i type="logical" name="LOPTICS"> F  </i>
   <v name="STM">      0.00000000      0.00000000      0.00000000      0.00000000      0.00000000      0.00000000      0.00000000</v>
  </separator>
  <separator name="performance" >
   <i type="int" name="NPAR">    16</i>
   <i type="int" name="NSIM">     4</i>
   <i type="int" name="NBLK">    -1</i>
   <i type="logical" name="LPLANE"> T  </i>
   <i type="logical" name="LSCALAPACK"> T  </i>
   <i type="logical" name="LSCAAWARE"> F  </i>
   <i type="logical" name="LSCALU"> F  </i>
   <i type="logical" name="LASYNC"> F  </i>
   <i type="logical" name="LORBITALREAL"> F  </i>
  </separator>
  <separator name="miscellaneous" >
   <i type="int" name="IDIOT">     3</i>
   <i type="logical" name="LMUSIC"> F  </i>
   <v name="POMASS">     16.00000000</v>
   <v name="DARWINR">      0.00000000</v>
   <v name="DARWINV">      1.00000000</v>
   <i type="logical" name="LCORR"> T  </i>
  </separator>
  <i type="logical" name="GGA_COMPAT"> T  </i>
  <i type="logical" name="LBERRY"> F  </i>
  <i type="int" name="ICORELEVEL">     0</i>
  <i type="logical" name="LDAU"> F  </i>
  <i type="int" name="I_CONSTRAINED_M">     0</i>
  <separator name="electronic exchange-correlation" >
   <i type="string" name="GGA">--</i>
   <i type="int" name="VOSKOWN">     0</i>
   <i type="logical" name="LHFCALC"> F  </i>
   <i type="string" name="PRECFOCK"></i>
   <i type="logical" name="LSYMGRAD"> F  </i>
   <i type="logical" name="LHFONE"> F  </i>
   <i type="logical" name="LRHFCALC"> F  </i>
   <i type="logical" name="LTHOMAS"> F  </i>
   <i type="logical" name="LMODELHF"> F  </i>
   <i name="ENCUT4O">     -1.00000000</i>
   <i type="int" name="EXXOEP">     0</i>
   <i type="int" name="FOURORBIT">     0</i>
   <i name="AEXX">      0.00000000</i>
   <i name="HFALPHA">      0.00000000</i>
   <i name="MCALPHA">      0.00000000</i>
   <i name="ALDAX">      1.00000000</i>
   <i name="AGGAX">      1.00000000</i>
   <i name="ALDAC">      1.00000000</i>
   <i name="AGGAC">      1.00000000</i>
   <i type="int" name="NKREDX">     1</i>
   <i type="int" name="NKREDY">     1</i>
   <i type="int" name="NKREDZ">     1</i>
   <i type="logical" name="SHIFTRED"> F  </i>
   <i type="logical" name="ODDONLY"> F  </i>
   <i type="logical" name="EVENONLY"> F  </i>
   <i type="int" name="LMAXFOCK">     0</i>
   <i type="int" name="NMAXFOCKAE">     0</i>
   <i type="logical" name="LFOCKAEDFT"> F  </i>
   <i name="HFSCREEN">      0.00000000</i>
   <i name="HFSCREENC">      0.00000000</i>
   <i type="int" name="NBANDSGWLOW">     0</i>
  </separator>
  <separator name="vdW DFT" >
   <i type="logical" name="LUSE_VDW"> F  </i>
   <i name="Zab_VDW">     -0.84910000</i>
   <i name="PARAM1">      0.12340000</i>
   <i name="PARAM2">      1.00000000</i>
   <i name="PARAM3">      0.00000000</i>
  </separator>
  <separator name="model GW" >
   <i type="int" name="MODEL_GW">     0</i>
   <i name="MODEL_EPS0">    153.60000000</i>
   <i name="MODEL_ALPHA">      1.00000000</i>
  </separator>
  <separator name="linear response parameters" >
   <i type="logical" name="LEPSILON"> F  </i>
   <i type="logical" name="LRPA"> F  </i>
   <i type="logical" name="LNABLA"> F  </i>
   <i type="logical" name="LVEL"> F  </i>
   <i type="int" name="KINTER">     0</i>
   <i name="CSHIFT">      0.10000000</i>
   <i name="OMEGAMAX">     -1.00000000</i>
   <i name="DEG_THRESHOLD">      0.00200000</i>
  </separator>
  <separator name="orbital magnetization" >
   <i type="logical" name="NUCIND"> F  </i>
   <v name="MAGPOS">      0.00000000      0.00000000      0.00000000</v>
   <i type="logical" name="LNICSALL"> T  </i>
   <i type="logical" name="ORBITALMAG"> F  </i>
   <i type="logical" name="LMAGBLOCH"> F  </i>
   <i type="logical" name="LCHIMAG"> F  </i>
   <i type="logical" name="LGAUGE"> T  </i>
   <i type="int" name="MAGATOM">     0</i>
   <v name="MAGDIPOL">      0.00000000      0.00000000      0.00000000</v>
   <v name="AVECCONST">      0.00000000      0.00000000      0.00000000</v>
  </separator>
  <separator name="response functions" >
   <i type="logical" name="LADDER"> F  </i>
   <i type="logical" name="LFXC"> F  </i>
   <i type="logical" name="LHARTREE"> T  </i>
   <i type="int" name="IBSE">     0</i>
   <v type="int" name="KPOINT">    -1     0     0     0</v>
   <i type="logical" name="LTCTE"> F  </i>
   <i type="logical" name="LTETE"> F  </i>
   <i type="logical" name="LTRIPLET"> F  </i>
   <i type="logical" name="LFXCEPS"> F  </i>
   <i type="logical" name="LFXHEG"> F  </i>
   <i type="int" name="NATURALO">     0</i>
   <i type="logical" name="L2ORDER"> F  </i>
   <i type="logical" name="LUSEW"> F  </i>
   <i name="ENCUTGW">     -2.00000000</i>
   <i name="ENCUTGWSOFT">     -2.00000000</i>
   <i name="ENCUTLF">     -1.00000000</i>
   <i type="int" name="LMAXMP2">    -1</i>
   <i name="SCISSOR">      0.00000000</i>
   <i type="int" name="NOMEGA">     0</i>
   <i type="int" name="NOMEGAR">     0</i>
   <i type="int" name="NBANDSGW">    -1</i>
   <i type="int" name="NBANDSO">    -1</i>
   <i type="int" name="NBANDSV">    -1</i>
   <i type="int" name="NELM">     1</i>
   <i type="int" name="NELMHF">     1</i>
   <i type="int" name="DIM">     3</i>
   <i type="int" name="ANTIRES">     0</i>
   <i name="OMEGAMAX">    -30.00000000</i>
   <i name="OMEGAMIN">    -30.00000000</i>
   <i name="OMEGATL">   -200.00000000</i>
   <i type="int" name="OMEGAGRID">     0</i>
   <i name="CSHIFT">     -0.10000000</i>
   <i type="logical" name="SELFENERGY"> F  </i>
   <i type="logical" name="LSPECTRAL"> F  </i>
   <i type="logical" name="LSPECTRALGW"> F  </i>
   <i type="logical" name="LSINGLES"> F  </i>
   <i type="logical" name="LFERMIGW"> F  </i>
   <i type="logical" name="ODDONLYGW"> F  </i>
   <i type="logical" name="EVENONLYGW"> F  </i>
   <i type="int" name="NKREDLFX">     1</i>
   <i type="int" name="NKREDLFY">     1</i>
   <i type="int" name="NKREDLFZ">     1</i>
   <i type="int" name="MAXMEM">  1800</i>
   <i type="int" name="TELESCOPE">     0</i>
   <i type="int" name="TAUPAR">     1</i>
   <i type="int" name="OMEGAPAR">    -1</i>
   <i name="LAMBDA">      1.00000000</i>
  </separator>
  <separator name="External order field" >
   <i name="OFIELD_KAPPA">      0.00000000</i>
   <v name="OFIELD_K">      0.00000000      0.00000000      0.00000000</v>
   <i name="OFIELD_Q6_NEAR">      0.00000000</i>
   <i name="OFIELD_Q6_FAR">      0.00000000</i>
   <i name="OFIELD_A">      0.00000000</i>
  </separator>
 </parameters>
 <atominfo>
  <atoms>       2 </atoms>
  <types>       1 </types>
  <array name="atoms" >
   <dimension dim="1">ion</dimension>
   <field type="string">element</field>
   <field type="int">atomtype</field>
   <set>
    <rc><c>O </c><c>   1</c></rc>
    <rc><c>O </c><c>   1</c></rc>
   </set>
  </array>
  <array name="atomtypes" >
   <dimension dim="1">type</dimension>
   <field type="int">atomspertype</field>
   <field type="string">element</field>
   <field>mass</field>
   <field>valence</field>
   <field type="string">pseudopotential</field>
   <set>
    <rc><c>   2</c><c>O </c><c>     16.00000000</c><c>      6.00000000</c><c> PAW_RPBE O 08Apr2002                   </c></rc>
   </set>
  </array>
 </atominfo>
 <structure name="initialpos" >
  <crystal>
   <varray name="basis" >
    <v>       8.00000000       0.00000000       0.00000000 </v>
    <v>       0.00000000       8.00000000       0.00000000 </v>
    <v>       0.00000000       0.00000000       8.00000000 </v>
   </varray>
   <i name="volume">    512.00000000 </i>
   <varray name="rec_basis" >
    <v>       0.12500000       0.00000000       0.00000000 </v>
    <v>       0.00000000       0.12500000       0.00000000 </v>
    <v>       0.00000000       0.00000000       0.12500000 </v>
   </varray>
  </crystal>
  <varray name="positions" >
   <v>       0.00000000       0.00000000       0.00000000 </v>
   <v>       0.00000000       0.00000000       0.15250000 </v>
  </varray>
 </structure>
 <calculation>
  <scstep>
   <time name="dav">    0.08    0.08</time>
   <time name="total">    0.20    0.21</time>
   <energy>
    <i name="alphaZ">      1.08541148 </i>
    <i name="ewald">     60.46911053 </i>
    <i name="hartreedc">   -790.01998155 </i>
    <i name="XCdc">     54.82228297 </i>
    <i name="pawpsdc">    491.72839742 </i>
    <i name="pawaedc">   -495.41806911 </i>
    <i name="eentropy">     -0.00000000 </i>
    <i name="bandstr">   -100.91845147 </i>
    <i name="atom">    864.52639207 </i>
    <i name="e_fr_energy">     86.27509235 </i>
    <i name="e_wo_entrp">     86.27509235 </i>
    <i name="e_0_energy">     86.27509235 </i>
   </energy>
  </scstep>
  <scstep>
   <time name="dav">    0.15    0.15</time>
   <time name="total">    0.15    0.15</time>
   <energy>
    <i name="e_fr_energy">     -5.69954644 </i>
    <i name="e_wo_entrp">     -5.69950204 </i>
    <i name="e_0_energy">     -5.69952424 </i>
   </energy>
  </scstep>
  <scstep>
   <time name="dav">    0.07    0.07</time>
   <time name="total">    0.07    0.08</time>
   <energy>
    <i name="e_fr_energy">     -9.77975473 </i>
    <i name="e_wo_entrp">     -9.77975468 </i>
    <i name="e_0_energy">     -9.77975470 </i>
   </energy>
  </scstep>
  <scstep>
   <time name="dav">    0.09    0.09</time>
   <time name="total">    0.09    0.10</time>
   <energy>
    <i name="e_fr_energy">     -9.81247589 </i>
    <i name="e_wo_entrp">     -9.81247583 </i>
    <i name="e_0_energy">     -9.81247586 </i>
   </energy>
  </scstep>
  <scstep>
   <time name="dav">    0.14    0.14</time>
   <time name="total">    0.19    0.19</time>
   <energy>
    <i name="e_fr_energy">     -9.81257247 </i>
    <i name="e_wo_entrp">     -9.81257241 </i>
    <i name="e_0_energy">     -9.81257244 </i>
   </energy>
  </scstep>
  <scstep>
   <time name="dav">    0.11    0.11</time>
   <time name="total">    0.25    0.25</time>
   <energy>
    <i name="e_fr_energy">     -9.62889566 </i>
    <i name="e_wo_entrp">     -9.62889566 </i>
    <i name="e_0_energy">     -9.62889566 </i>
   </energy>
  </scstep>
  <scstep>
   <time name="dav">    0.07    0.07</time>
   <time name="total">    0.21    0.22</time>
   <energy>
    <i name="e_fr_energy">     -9.84726689 </i>
    <i name="e_wo_entrp">     -9.84726689 </i>
    <i name="e_0_energy">     -9.84726689 </i>
   </energy>
  </scstep>
  <scstep>
   <time name="dav">    0.09    0.09</time>
   <time name="total">    0.23    0.23</time>
   <energy>
    <i name="e_fr_energy">     -9.84493954 </i>
    <i name="e_wo_entrp">     -9.84493954 </i>
    <i name="e_0_energy">     -9.84493954 </i>
   </energy>
  </scstep>
  <scstep>
   <time name="dav">    0.07    0.07</time>
   <time name="total">    0.21    0.22</time>
   <energy>
    <i name="e_fr_energy">     -9.85175272 </i>
    <i name="e_wo_entrp">     -9.85175272 </i>
    <i name="e_0_energy">     -9.85175272 </i>
   </energy>
  </scstep>
  <scstep>
   <time name="dav">    0.07    0.07</time>
   <time name="total">    0.21    0.22</time>
   <energy>
    <i name="e_fr_energy">     -9.85287275 </i>
    <i name="e_wo_entrp">     -9.85287275 </i>
    <i name="e_0_energy">     -9.85287275 </i>
   </energy>
  </scstep>
  <scstep>
   <time name="dav">    0.08    0.07</time>
   <time name="total">    0.22    0.22</time>
   <energy>
    <i name="e_fr_energy">     -9.85304902 </i>
    <i name="e_wo_entrp">     -9.85304902 </i>
    <i name="e_0_energy">     -9.85304902 </i>
   </energy>
  </scstep>
  <scstep>
   <time name="dav">    0.07    0.07</time>
   <time name="total">    0.21    0.22</time>
   <energy>
    <i name="e_fr_energy">     -9.85322228 </i>
    <i name="e_wo_entrp">     -9.85322228 </i>
    <i name="e_0_energy">     -9.85322228 </i>
   </energy>
  </scstep>
  <scstep>
   <time name="dav">    0.07    0.07</time>
   <time name="total">    0.21    0.22</time>
   <energy>
    <i name="e_fr_energy">     -9.85334569 </i>
    <i name="e_wo_entrp">     -9.85334569 </i>
    <i name="e_0_energy">     -9.85334569 </i>
   </energy>
  </scstep>
  <scstep>
   <time name="dav">    0.07    0.07</time>
   <time name="total">    0.22    0.22</time>
   <energy>
    <i name="e_fr_energy">     -9.85351298 </i>
    <i name="e_wo_entrp">     -9.85351298 </i>
    <i name="e_0_energy">     -9.85351298 </i>
   </energy>
  </scstep>
  <scstep>
   <time name="dav">    0.07    0.07</time>
   <time name="total">    0.18    0.18</time>
   <energy>
    <i name="alphaZ">      1.08541148 </i>
    <i name="ewald">     60.46911053 </i>
    <i name="hartreedc">   -797.03345989 </i>
    <i name="XCdc">     55.53490641 </i>
    <i name="pawpsdc">    574.43248562 </i>
    <i name="pawaedc">   -578.05572628 </i>
    <i name="eentropy">     -0.00000000 </i>
    <i name="bandstr">   -190.81269137 </i>
    <i name="atom">    864.52639207 </i>
    <i name="e_fr_energy">     -9.85357144 </i>
    <i name="e_wo_entrp">     -9.85357144 </i>
    <i name="e_0_energy">     -9.85357144 </i>
   </energy>
  </scstep>
  <structure>
   <crystal>
    <varray name="basis" >
     <v>       8.00000000       0.00000000       0.00000000 </v>
     <v>       0.00000000       8.00000000       0.00000000 </v>
     <v>       0.00000000       0.00000000       8.00000000 </v>
    </varray>
    <i name="volume">    512.00000000 </i>
    <varray name="rec_basis" >
     <v>       0.12500000       0.00000000       0.00000000 </v>
     <v>       0.00000000       0.12500000       0.00000000 </v>
     <v>       0.00000000       0.00000000       0.12500000 </v>
    </varray>
   </crystal>
   <varray name="positions" >
    <v>       0.00000000       0.00000000       0.00000000 </v>
    <v>       0.00000000       0.00000000       0.15250000 </v>
   </varray>
  </structure>
  <varray name="forces" >
   <v>       0.00000000       0.00000000      -1.08438968 </v>
   <v>       0.00000000      -0.00000000       1.08438968 </v>
  </varray>
  <varray name="stress" >
   <v>      -4.89716045       0.00000000       0.00000000 </v>
   <v>       0.00000000      -4.89716045       0.00000000 </v>
   <v>       0.00000000       0.00000000       0.40684645 </v>
  </varray>
  <energy>
   <i name="e_fr_energy">     -9.85357144 </i>
   <i name="e_wo_entrp">     -9.85357144 </i>
   <i name="e_0_energy">     -0.00000000 </i>
  </energy>
  <time name="totalsc">    6.97    7.12</time>
 </calculation>
 <calculation>
  <scstep>
   <time name="dav">    0.09    0.09</time>
   <time name="total">    0.23    0.23</time>
   <energy>
    <i name="alphaZ">      1.08541148 </i>
    <i name="ewald">     27.51421163 </i>
    <i name="hartreedc">   -772.36876368 </i>
    <i name="XCdc">     55.11567478 </i>
    <i name="pawpsdc">    574.45237987 </i>
    <i name="pawaedc">   -578.07556659 </i>
    <i name="eentropy">     -0.00000000 </i>
    <i name="bandstr">   -181.86164724 </i>
    <i name="atom">    864.52639207 </i>
    <i name="e_fr_energy">     -9.61190767 </i>
    <i name="e_wo_entrp">     -9.61190767 </i>
    <i name="e_0_energy">     -9.61190767 </i>
   </energy>
  </scstep>
  <scstep>
   <time name="dav">    0.10    0.11</time>
   <time name="total">    0.25    0.25</time>
   <energy>
    <i name="e_fr_energy">     -9.60758710 </i>
    <i name="e_wo_entrp">     -9.60758710 </i>
    <i name="e_0_energy">     -9.60758710 </i>
   </energy>
  </scstep>
  <scstep>
   <time name="dav">    0.09    0.09</time>
   <time name="total">    0.22    0.23</time>
   <energy>
    <i name="e_fr_energy">     -9.61809977 </i>
    <i name="e_wo_entrp">     -9.61809977 </i>
    <i name="e_0_energy">     -9.61809977 </i>
   </energy>
  </scstep>
  <scstep>
   <time name="dav">    0.07    0.07</time>
   <time name="total">    0.21    0.22</time>
   <energy>
    <i name="e_fr_energy">     -9.62127437 </i>
    <i name="e_wo_entrp">     -9.62127437 </i>
    <i name="e_0_energy">     -9.62127437 </i>
   </energy>
  </scstep>
  <scstep>
   <time name="dav">    0.07    0.07</time>
   <time name="total">    0.21    0.21</time>
   <energy>
    <i name="e_fr_energy">     -9.62253569 </i>
    <i name="e_wo_entrp">     -9.62253569 </i>
    <i name="e_0_energy">     -9.62253569 </i>
   </energy>
  </scstep>
  <scstep>
   <time name="dav">    0.08    0.07</time>
   <time name="total">    0.21    0.22</time>
   <energy>
    <i name="e_fr_energy">     -9.62295726 </i>
    <i name="e_wo_entrp">     -9.62295726 </i>
    <i name="e_0_energy">     -9.62295726 </i>
   </energy>
  </scstep>
  <scstep>
   <time name="dav">    0.08    0.07</time>
   <time name="total">    0.21    0.22</time>
   <energy>
    <i name="e_fr_energy">     -9.62306809 </i>
    <i name="e_wo_entrp">     -9.62306809 </i>
    <i name="e_0_energy">     -9.62306809 </i>
   </energy>
  </scstep>
  <scstep>
   <time name="dav">    0.07    0.07</time>
   <time name="total">    0.22    0.22</time>
   <energy>
    <i name="e_fr_energy">     -9.62317861 </i>
    <i name="e_wo_entrp">     -9.62317861 </i>
    <i name="e_0_energy">     -9.62317861 </i>
   </energy>
  </scstep>
  <scstep>
   <time name="dav">    0.08    0.07</time>
   <time name="total">    0.21    0.22</time>
   <energy>
    <i name="e_fr_energy">     -9.62329817 </i>
    <i name="e_wo_entrp">     -9.62329817 </i>
    <i name="e_0_energy">     -9.62329817 </i>
   </energy>
  </scstep>
  <scstep>
   <time name="dav">    0.07    0.07</time>
   <time name="total">    0.18    0.18</time>
   <energy>
    <i name="alphaZ">      1.08541148 </i>
    <i name="ewald">     27.51421163 </i>
    <i name="hartreedc">   -767.91582252 </i>
    <i name="XCdc">     54.82087056 </i>
    <i name="pawpsdc">    545.46591039 </i>
    <i name="pawaedc">   -548.96278131 </i>
    <i name="eentropy">     -0.00000000 </i>
    <i name="bandstr">   -186.15753990 </i>
    <i name="atom">    864.52639207 </i>
    <i name="e_fr_energy">     -9.62334760 </i>
    <i name="e_wo_entrp">     -9.62334760 </i>
    <i name="e_0_energy">     -9.62334760 </i>
   </energy>
  </scstep>
  <structure>
   <crystal>
    <varray name="basis" >
     <v>       8.00000000       0.00000000       0.00000000 </v>
     <v>       0.00000000       8.00000000       0.00000000 </v>
     <v>       0.00000000       0.00000000       8.00000000 </v>
    </varray>
    <i name="volume">    512.00000000 </i>
    <varray name="rec_basis" >
     <v>       0.12500000       0.00000000       0.00000000 </v>
     <v>       0.00000000       0.12500000       0.00000000 </v>
     <v>       0.00000000       0.00000000       0.12500000 </v>
    </varray>
   </crystal>
   <varray name="positions" >
    <v>       0.00000000       0.00000000      -0.00653923 </v>
    <v>       0.00000000      -0.00000000       0.15903923 </v>
   </varray>
  </structure>
  <varray name="forces" >
   <v>       0.00000000      -0.00000000       4.73194201 </v>
   <v>       0.00000000       0.00000000      -4.73194201 </v>
  </varray>
  <varray name="stress" >
   <v>      -4.89789918       0.00000000       0.00000000 </v>
   <v>       0.00000000      -4.89789918       0.00000000 </v>
   <v>      -0.00000000       0.00000000     -22.91102311 </v>
  </varray>
  <energy>
   <i name="e_fr_energy">     -9.62334760 </i>
   <i name="e_wo_entrp">     -9.62334760 </i>
   <i name="e_0_energy">     -0.00000000 </i>
  </energy>
  <time name="totalsc">    2.38    2.44</time>
 </calculation>
 <calculation>
  <scstep>
   <time name="dav">    0.07    0.07</time>
   <time name="total">    0.22    0.22</time>
   <energy>
    <i name="alphaZ">      1.08541148 </i>
    <i name="ewald">     55.51886205 </i>
    <i name="hartreedc">   -789.04897200 </i>
    <i name="XCdc">     55.18592282 </i>
    <i name="pawpsdc">    545.45907230 </i>
    <i name="pawaedc">   -548.95588788 </i>
    <i name="eentropy">     -0.00000000 </i>
    <i name="bandstr">   -193.61103798 </i>
    <i name="atom">    864.52639207 </i>
    <i name="e_fr_energy">     -9.84023713 </i>
    <i name="e_wo_entrp">     -9.84023713 </i>
    <i name="e_0_energy">     -9.84023713 </i>
   </energy>
  </scstep>
  <scstep>
   <time name="dav">    0.15    0.15</time>
   <time name="total">    0.28    0.29</time>
   <energy>
    <i name="e_fr_energy">     -9.84625654 </i>
    <i name="e_wo_entrp">     -9.84625654 </i>
    <i name="e_0_energy">     -9.84625654 </i>
   </energy>
  </scstep>
  <scstep>
   <time name="dav">    0.13    0.13</time>
   <time name="total">    0.26    0.27</time>
   <energy>
    <i name="e_fr_energy">     -9.85701983 </i>
    <i name="e_wo_entrp">     -9.85701983 </i>
    <i name="e_0_energy">     -9.85701983 </i>
   </energy>
  </scstep>
  <scstep>
   <time name="dav">    0.07    0.07</time>
   <time name="total">    0.21    0.22</time>
   <energy>
    <i name="e_fr_energy">     -9.86013363 </i>
    <i name="e_wo_entrp">     -9.86013363 </i>
    <i name="e_0_energy">     -9.86013363 </i>
   </energy>
  </scstep>
  <scstep>
   <time name="dav">    0.07    0.07</time>
   <time name="total">    0.21    0.22</time>
   <energy>
    <i name="e_fr_energy">     -9.86067678 </i>
    <i name="e_wo_entrp">     -9.86067678 </i>
    <i name="e_0_energy">     -9.86067678 </i>
   </energy>
  </scstep>
  <scstep>
   <time name="dav">    0.07    0.07</time>
   <time name="total">    0.18    0.18</time>
   <energy>
    <i name="alphaZ">      1.08541148 </i>
    <i name="ewald">     55.51886205 </i>
    <i name="hartreedc">   -792.70073254 </i>
    <i name="XCdc">     55.42331684 </i>
    <i name="pawpsdc">    569.37072649 </i>
    <i name="pawaedc">   -572.97097179 </i>
    <i name="eentropy">     -0.00000000 </i>
    <i name="bandstr">   -190.11375843 </i>
    <i name="atom">    864.52639207 </i>
    <i name="e_fr_energy">     -9.86075383 </i>
    <i name="e_wo_entrp">     -9.86075383 </i>
    <i name="e_0_energy">     -9.86075383 </i>
   </energy>
  </scstep>
  <structure>
   <crystal>
    <varray name="basis" >
     <v>       8.00000000       0.00000000       0.00000000 </v>
     <v>       0.00000000       8.00000000       0.00000000 </v>
     <v>       0.00000000       0.00000000       8.00000000 </v>
    </varray>
    <i name="volume">    512.00000000 </i>
    <varray name="rec_basis" >
     <v>       0.12500000       0.00000000       0.00000000 </v>
     <v>       0.00000000       0.12500000       0.00000000 </v>
     <v>       0.00000000       0.00000000       0.12500000 </v>
    </varray>
   </crystal>
   <varray name="positions" >
    <v>       0.00000000       0.00000000      -0.00091376 </v>
    <v>       0.00000000      -0.00000000       0.15341376 </v>
   </varray>
  </structure>
  <varray name="forces" >
   <v>       0.00000000       0.00000000       0.03289835 </v>
   <v>       0.00000000      -0.00000000      -0.03289835 </v>
  </varray>
  <varray name="stress" >
   <v>      -4.76854454       0.00000000       0.00000000 </v>
   <v>       0.00000000      -4.76854454       0.00000000 </v>
   <v>       0.00000000       0.00000000      -3.69866652 </v>
  </varray>
  <energy>
   <i name="e_fr_energy">     -9.86075383 </i>
   <i name="e_wo_entrp">     -9.86075383 </i>
   <i name="e_0_energy">     -0.00000000 </i>
  </energy>
  <time name="totalsc">    1.60    1.65</time>
  <eigenvalues>
   <array>
    <dimension dim="1">band</dimension>
    <dimension dim="2">kpoint</dimension>
    <dimension dim="3">spin</dimension>
    <field>eigene</field>
    <field>occ</field>
    <set>
     <set comment="spin 1">
      <set comment="kpoint 1">
       <r>  -32.3132    1.0000 </r>
       <r>  -20.4607    1.0000 </r>
       <r>  -13.2195    1.0000 </r>
       <r>  -13.0633    1.0000 </r>
       <r>  -13.0633    1.0000 </r>
       <r>   -6.7556    1.0000 </r>
       <r>   -6.7556    1.0000 </r>
       <r>   -0.4073    0.0000 </r>
       <r>    1.3505    0.0000 </r>
       <r>    1.7630    0.0000 </r>
       <r>    1.7630    0.0000 </r>
       <r>    1.9557    0.0000 </r>
       <r>    1.9990    0.0000 </r>
       <r>    2.2228    0.0000 </r>
       <r>    2.9796    0.0000 </r>
       <r>    3.8483    0.0000 </r>
      </set>
     </set>
     <set comment="spin 2">
      <set comment="kpoint 1">
       <r>  -31.0870    1.0000 </r>
       <r>  -18.6640    1.0000 </r>
       <r>  -12.2918    1.0000 </r>
       <r>  -11.2198    1.0000 </r>
       <r>  -11.2198    1.0000 </r>
       <r>   -4.4815    0.0000 </r>
       <r>   -4.4815    0.0000 </r>
       <r>   -0.2701    0.0000 </r>
       <r>    1.7571    0.0000 </r>
       <r>    1.9534    0.0000 </r>
       <r>    1.9534    0.0000 </r>
       <r>    2.0491    0.0000 </r>
       <r>    2.0496    0.0000 </r>
       <r>    2.2857    0.0000 </r>
       <r>    3.4760    0.0000 </r>
       <r>    3.9977    0.0000 </r>
      </set>
     </set>
    </set>
   </array>
  </eigenvalues>
  <separator name="orbital magnetization" >
   <v name="MAGDIPOLOUT">      0.00000000      0.00000000      0.00000000</v>
  </separator>
  <dos>
   <i name="efermi">     -5.82472152 </i>
   <total>
    <array>
     <dimension dim="1">gridpoints</dimension>
     <dimension dim="2">spin</dimension>
     <field>energy</field>
     <field>total</field>
     <field>integrated</field>
     <set>
      <set comment="spin 1">
       <r>   -34.3132     0.0000     0.0000 </r>
       <r>   -34.1789     0.0000     0.0000 </r>
       <r>   -34.0445     0.0000     0.0000 </r>
       <r>   -33.9101     0.0000     0.0000 </r>
       <r>   -33.7757     0.0000     0.0000 </r>
       <r>   -33.6414     0.0000     0.0000 </r>
       <r>   -33.5070     0.0000     0.0000 </r>
       <r>   -33.3726     0.0000     0.0000 </r>
       <r>   -33.2383     0.0000     0.0000 </r>
       <r>   -33.1039     0.0000     0.0000 </r>
       <r>   -32.9695     0.0000     0.0000 </r>
       <r>   -32.8352     0.0008     0.0001 </r>
       <r>   -32.7008     0.0220     0.0031 </r>
       <r>   -32.5664     0.2503     0.0367 </r>
       <r>   -32.4320     1.2183     0.2004 </r>
       <r>   -32.2977     2.5554     0.5438 </r>
       <r>   -32.1633     2.3195     0.8554 </r>
       <r>   -32.0289     0.9106     0.9778 </r>
       <r>   -31.8946     0.1538     0.9985 </r>
       <r>   -31.7602     0.0111     1.0000 </r>
       <r>   -31.6258     0.0003     1.0000 </r>
       <r>   -31.4915     0.0000     1.0000 </r>
       <r>   -31.3571     0.0000     1.0000 </r>
       <r>   -31.2227     0.0000     1.0000 </r>
       <r>   -31.0883     0.0000     1.0000 </r>
       <r>   -30.9540     0.0000     1.0000 </r>
       <r>   -30.8196     0.0000     1.0000 </r>
       <r>   -30.6852     0.0000     1.0000 </r>
       <r>   -30.5509     0.0000     1.0000 </r>
       <r>   -30.4165     0.0000     1.0000 </r>
       <r>   -30.2821     0.0000     1.0000 </r>
       <r>   -30.1478     0.0000     1.0000 </r>
       <r>   -30.0134     0.0000     1.0000 </r>
       <r>   -29.8790     0.0000     1.0000 </r>
       <r>   -29.7446     0.0000     1.0000 </r>
       <r>   -29.6103     0.0000     1.0000 </r>
       <r>   -29.4759     0.0000     1.0000 </r>
       <r>   -29.3415     0.0000     1.0000 </r>
       <r>   -29.2072     0.0000     1.0000 </r>
       <r>   -29.0728     0.0000     1.0000 </r>
       <r>   -28.9384     0.0000     1.0000 </r>
       <r>   -28.8041     0.0000     1.0000 </r>
       <r>   -28.6697     0.0000     1.0000 </r>
       <r>   -28.5353     0.0000     1.0000 </r>
       <r>   -28.4009     0.0000     1.0000 </r>
       <r>   -28.2666     0.0000     1.0000 </r>
       <r>   -28.1322     0.0000     1.0000 </r>
       <r>   -27.9978     0.0000     1.0000 </r>
       <r>   -27.8635     0.0000     1.0000 </r>
       <r>   -27.7291     0.0000     1.0000 </r>
       <r>   -27.5947     0.0000     1.0000 </r>
       <r>   -27.4604     0.0000     1.0000 </r>
       <r>   -27.3260     0.0000     1.0000 </r>
       <r>   -27.1916     0.0000     1.0000 </r>
       <r>   -27.0573     0.0000     1.0000 </r>
       <r>   -26.9229     0.0000     1.0000 </r>
       <r>   -26.7885     0.0000     1.0000 </r>
       <r>   -26.6541     0.0000     1.0000 </r>
       <r>   -26.5198     0.0000     1.0000 </r>
       <r>   -26.3854     0.0000     1.0000 </r>
       <r>   -26.2510     0.0000     1.0000 </r>
       <r>   -26.1167     0.0000     1.0000 </r>
       <r>   -25.9823     0.0000     1.0000 </r>
       <r>   -25.8479     0.0000     1.0000 </r>
       <r>   -25.7136     0.0000     1.0000 </r>
       <r>   -25.5792     0.0000     1.0000 </r>
       <r>   -25.4448     0.0000     1.0000 </r>
       <r>   -25.3104     0.0000     1.0000 </r>
       <r>   -25.1761     0.0000     1.0000 </r>
       <r>   -25.0417     0.0000     1.0000 </r>
       <r>   -24.9073     0.0000     1.0000 </r>
       <r>   -24.7730     0.0000     1.0000 </r>
       <r>   -24.6386     0.0000     1.0000 </r>
       <r>   -24.5042     0.0000     1.0000 </r>
       <r>   -24.3699     0.0000     1.0000 </r>
       <r>   -24.2355     0.0000     1.0000 </r>
       <r>   -24.1011     0.0000     1.0000 </r>
       <r>   -23.9667     0.0000     1.0000 </r>
       <r>   -23.8324     0.0000     1.0000 </r>
       <r>   -23.6980     0.0000     1.0000 </r>
       <r>   -23.5636     0.0000     1.0000 </r>
       <r>   -23.4293     0.0000     1.0000 </r>
       <r>   -23.2949     0.0000     1.0000 </r>
       <r>   -23.1605     0.0000     1.0000 </r>
       <r>   -23.0262     0.0000     1.0000 </r>
       <r>   -22.8918     0.0000     1.0000 </r>
       <r>   -22.7574     0.0000     1.0000 </r>
       <r>   -22.6230     0.0000     1.0000 </r>
       <r>   -22.4887     0.0000     1.0000 </r>
       <r>   -22.3543     0.0000     1.0000 </r>
       <r>   -22.2199     0.0000     1.0000 </r>
       <r>   -22.0856     0.0000     1.0000 </r>
       <r>   -21.9512     0.0000     1.0000 </r>
       <r>   -21.8168     0.0000     1.0000 </r>
       <r>   -21.6825     0.0000     1.0000 </r>
       <r>   -21.5481     0.0000     1.0000 </r>
       <r>   -21.4137     0.0000     1.0000 </r>
       <r>   -21.2793     0.0000     1.0000 </r>
       <r>   -21.1450     0.0000     1.0000 </r>
       <r>   -21.0106     0.0004     1.0001 </r>
       <r>   -20.8762     0.0119     1.0016 </r>
       <r>   -20.7419     0.1618     1.0234 </r>
       <r>   -20.6075     0.9391     1.1496 </r>
       <r>   -20.4731     2.3466     1.4649 </r>
       <r>   -20.3388     2.5361     1.8057 </r>
       <r>   -20.2044     1.1860     1.9650 </r>
       <r>   -20.0700     0.2390     1.9971 </r>
       <r>   -19.9357     0.0206     1.9999 </r>
       <r>   -19.8013     0.0008     2.0000 </r>
       <r>   -19.6669     0.0000     2.0000 </r>
       <r>   -19.5325     0.0000     2.0000 </r>
       <r>   -19.3982     0.0000     2.0000 </r>
       <r>   -19.2638     0.0000     2.0000 </r>
       <r>   -19.1294     0.0000     2.0000 </r>
       <r>   -18.9951     0.0000     2.0000 </r>
       <r>   -18.8607     0.0000     2.0000 </r>
       <r>   -18.7263     0.0000     2.0000 </r>
       <r>   -18.5920     0.0000     2.0000 </r>
       <r>   -18.4576     0.0000     2.0000 </r>
       <r>   -18.3232     0.0000     2.0000 </r>
       <r>   -18.1888     0.0000     2.0000 </r>
       <r>   -18.0545     0.0000     2.0000 </r>
       <r>   -17.9201     0.0000     2.0000 </r>
       <r>   -17.7857     0.0000     2.0000 </r>
       <r>   -17.6514     0.0000     2.0000 </r>
       <r>   -17.5170     0.0000     2.0000 </r>
       <r>   -17.3826     0.0000     2.0000 </r>
       <r>   -17.2483     0.0000     2.0000 </r>
       <r>   -17.1139     0.0000     2.0000 </r>
       <r>   -16.9795     0.0000     2.0000 </r>
       <r>   -16.8451     0.0000     2.0000 </r>
       <r>   -16.7108     0.0000     2.0000 </r>
       <r>   -16.5764     0.0000     2.0000 </r>
       <r>   -16.4420     0.0000     2.0000 </r>
       <r>   -16.3077     0.0000     2.0000 </r>
       <r>   -16.1733     0.0000     2.0000 </r>
       <r>   -16.0389     0.0000     2.0000 </r>
       <r>   -15.9046     0.0000     2.0000 </r>
       <r>   -15.7702     0.0000     2.0000 </r>
       <r>   -15.6358     0.0000     2.0000 </r>
       <r>   -15.5014     0.0000     2.0000 </r>
       <r>   -15.3671     0.0000     2.0000 </r>
       <r>   -15.2327     0.0000     2.0000 </r>
       <r>   -15.0983     0.0000     2.0000 </r>
       <r>   -14.9640     0.0000     2.0000 </r>
       <r>   -14.8296     0.0000     2.0000 </r>
       <r>   -14.6952     0.0000     2.0000 </r>
       <r>   -14.5609     0.0000     2.0000 </r>
       <r>   -14.4265     0.0000     2.0000 </r>
       <r>   -14.2921     0.0000     2.0000 </r>
       <r>   -14.1577     0.0000     2.0000 </r>
       <r>   -14.0234     0.0000     2.0000 </r>
       <r>   -13.8890     0.0000     2.0000 </r>
       <r>   -13.7546     0.0006     2.0001 </r>
       <r>   -13.6203     0.0171     2.0024 </r>
       <r>   -13.4859     0.2249     2.0326 </r>
       <r>   -13.3515     1.3707     2.2168 </r>
       <r>   -13.2172     4.2158     2.7832 </r>
       <r>   -13.0828     6.9988     3.7237 </r>
       <r>   -12.9484     6.1934     4.5559 </r>
       <r>   -12.8141     2.7096     4.9200 </r>
       <r>   -12.6797     0.5454     4.9933 </r>
       <r>   -12.5453     0.0483     4.9997 </r>
       <r>   -12.4109     0.0018     5.0000 </r>
       <r>   -12.2766     0.0000     5.0000 </r>
       <r>   -12.1422     0.0000     5.0000 </r>
       <r>   -12.0078     0.0000     5.0000 </r>
       <r>   -11.8735     0.0000     5.0000 </r>
       <r>   -11.7391     0.0000     5.0000 </r>
       <r>   -11.6047     0.0000     5.0000 </r>
       <r>   -11.4704     0.0000     5.0000 </r>
       <r>   -11.3360     0.0000     5.0000 </r>
       <r>   -11.2016     0.0000     5.0000 </r>
       <r>   -11.0672     0.0000     5.0000 </r>
       <r>   -10.9329     0.0000     5.0000 </r>
       <r>   -10.7985     0.0000     5.0000 </r>
       <r>   -10.6641     0.0000     5.0000 </r>
       <r>   -10.5298     0.0000     5.0000 </r>
       <r>   -10.3954     0.0000     5.0000 </r>
       <r>   -10.2610     0.0000     5.0000 </r>
       <r>   -10.1267     0.0000     5.0000 </r>
       <r>    -9.9923     0.0000     5.0000 </r>
       <r>    -9.8579     0.0000     5.0000 </r>
       <r>    -9.7235     0.0000     5.0000 </r>
       <r>    -9.5892     0.0000     5.0000 </r>
       <r>    -9.4548     0.0000     5.0000 </r>
       <r>    -9.3204     0.0000     5.0000 </r>
       <r>    -9.1861     0.0000     5.0000 </r>
       <r>    -9.0517     0.0000     5.0000 </r>
       <r>    -8.9173     0.0000     5.0000 </r>
       <r>    -8.7830     0.0000     5.0000 </r>
       <r>    -8.6486     0.0000     5.0000 </r>
       <r>    -8.5142     0.0000     5.0000 </r>
       <r>    -8.3798     0.0000     5.0000 </r>
       <r>    -8.2455     0.0000     5.0000 </r>
       <r>    -8.1111     0.0000     5.0000 </r>
       <r>    -7.9767     0.0000     5.0000 </r>
       <r>    -7.8424     0.0000     5.0000 </r>
       <r>    -7.7080     0.0000     5.0000 </r>
       <r>    -7.5736     0.0000     5.0000 </r>
       <r>    -7.4393     0.0000     5.0000 </r>
       <r>    -7.3049     0.0008     5.0001 </r>
       <r>    -7.1705     0.0242     5.0033 </r>
       <r>    -7.0361     0.3270     5.0473 </r>
       <r>    -6.9018     1.8907     5.3013 </r>
       <r>    -6.7674     4.7047     5.9335 </r>
       <r>    -6.6330     5.0635     6.6139 </r>
       <r>    -6.4987     2.3581     6.9308 </r>
       <r>    -6.3643     0.4732     6.9943 </r>
       <r>    -6.2299     0.0406     6.9998 </r>
       <r>    -6.0956     0.0015     7.0000 </r>
       <r>    -5.9612     0.0000     7.0000 </r>
       <r>    -5.8268     0.0000     7.0000 </r>
       <r>    -5.6925     0.0000     7.0000 </r>
       <r>    -5.5581     0.0000     7.0000 </r>
       <r>    -5.4237     0.0000     7.0000 </r>
       <r>    -5.2893     0.0000     7.0000 </r>
       <r>    -5.1550     0.0000     7.0000 </r>
       <r>    -5.0206     0.0000     7.0000 </r>
       <r>    -4.8862     0.0000     7.0000 </r>
       <r>    -4.7519     0.0000     7.0000 </r>
       <r>    -4.6175     0.0000     7.0000 </r>
       <r>    -4.4831     0.0000     7.0000 </r>
       <r>    -4.3488     0.0000     7.0000 </r>
       <r>    -4.2144     0.0000     7.0000 </r>
       <r>    -4.0800     0.0000     7.0000 </r>
       <r>    -3.9456     0.0000     7.0000 </r>
       <r>    -3.8113     0.0000     7.0000 </r>
       <r>    -3.6769     0.0000     7.0000 </r>
       <r>    -3.5425     0.0000     7.0000 </r>
       <r>    -3.4082     0.0000     7.0000 </r>
       <r>    -3.2738     0.0000     7.0000 </r>
       <r>    -3.1394     0.0000     7.0000 </r>
       <r>    -3.0051     0.0000     7.0000 </r>
       <r>    -2.8707     0.0000     7.0000 </r>
       <r>    -2.7363     0.0000     7.0000 </r>
       <r>    -2.6019     0.0000     7.0000 </r>
       <r>    -2.4676     0.0000     7.0000 </r>
       <r>    -2.3332     0.0000     7.0000 </r>
       <r>    -2.1988     0.0000     7.0000 </r>
       <r>    -2.0645     0.0000     7.0000 </r>
       <r>    -1.9301     0.0000     7.0000 </r>
       <r>    -1.7957     0.0000     7.0000 </r>
       <r>    -1.6614     0.0000     7.0000 </r>
       <r>    -1.5270     0.0000     7.0000 </r>
       <r>    -1.3926     0.0000     7.0000 </r>
       <r>    -1.2582     0.0000     7.0000 </r>
       <r>    -1.1239     0.0000     7.0000 </r>
       <r>    -0.9895     0.0001     7.0000 </r>
       <r>    -0.8551     0.0056     7.0008 </r>
       <r>    -0.7208     0.0935     7.0133 </r>
       <r>    -0.5864     0.6654     7.1027 </r>
       <r>    -0.4520     2.0338     7.3760 </r>
       <r>    -0.3177     2.6866     7.7370 </r>
       <r>    -0.1833     1.5362     7.9434 </r>
       <r>    -0.0489     0.3790     7.9944 </r>
       <r>     0.0855     0.0401     7.9998 </r>
       <r>     0.2198     0.0018     8.0000 </r>
       <r>     0.3542     0.0000     8.0000 </r>
       <r>     0.4886     0.0000     8.0000 </r>
       <r>     0.6229     0.0000     8.0000 </r>
       <r>     0.7573     0.0001     8.0000 </r>
       <r>     0.8917     0.0043     8.0006 </r>
       <r>     1.0260     0.0766     8.0109 </r>
       <r>     1.1604     0.5847     8.0894 </r>
       <r>     1.2948     1.9217     8.3477 </r>
       <r>     1.4291     2.8399     8.7293 </r>
       <r>     1.5635     2.7309     9.0962 </r>
       <r>     1.6979     4.4127     9.6891 </r>
       <r>     1.8323     7.4394    10.6888 </r>
       <r>     1.9666     8.4581    11.8253 </r>
       <r>     2.1010     7.1806    12.7901 </r>
       <r>     2.2354     5.0097    13.4633 </r>
       <r>     2.3697     2.8374    13.8445 </r>
       <r>     2.5041     0.9845    13.9768 </r>
       <r>     2.6385     0.2192    14.0063 </r>
       <r>     2.7728     0.4876    14.0718 </r>
       <r>     2.9072     1.7304    14.3043 </r>
       <r>     3.0416     2.7166    14.6694 </r>
       <r>     3.1760     1.8466    14.9175 </r>
       <r>     3.3103     0.5427    14.9904 </r>
       <r>     3.4447     0.0838    15.0017 </r>
       <r>     3.5791     0.1994    15.0284 </r>
       <r>     3.7134     1.0542    15.1701 </r>
       <r>     3.8478     2.4444    15.4985 </r>
       <r>     3.9822     2.4522    15.8281 </r>
       <r>     4.1165     1.0643    15.9711 </r>
       <r>     4.2509     0.1989    15.9978 </r>
       <r>     4.3853     0.0159    15.9999 </r>
       <r>     4.5197     0.0005    16.0000 </r>
       <r>     4.6540     0.0000    16.0000 </r>
       <r>     4.7884     0.0000    16.0000 </r>
       <r>     4.9228     0.0000    16.0000 </r>
       <r>     5.0571     0.0000    16.0000 </r>
       <r>     5.1915     0.0000    16.0000 </r>
       <r>     5.3259     0.0000    16.0000 </r>
       <r>     5.4602     0.0000    16.0000 </r>
       <r>     5.5946     0.0000    16.0000 </r>
       <r>     5.7290     0.0000    16.0000 </r>
       <r>     5.8634     0.0000    16.0000 </r>
       <r>     5.9977     0.0000    16.0000 </r>
      </set>
      <set comment="spin 2">
       <r>   -34.3132     0.0000     0.0000 </r>
       <r>   -34.1789     0.0000     0.0000 </r>
       <r>   -34.0445     0.0000     0.0000 </r>
       <r>   -33.9101     0.0000     0.0000 </r>
       <r>   -33.7757     0.0000     0.0000 </r>
       <r>   -33.6414     0.0000     0.0000 </r>
       <r>   -33.5070     0.0000     0.0000 </r>
       <r>   -33.3726     0.0000     0.0000 </r>
       <r>   -33.2383     0.0000     0.0000 </r>
       <r>   -33.1039     0.0000     0.0000 </r>
       <r>   -32.9695     0.0000     0.0000 </r>
       <r>   -32.8352     0.0000     0.0000 </r>
       <r>   -32.7008     0.0000     0.0000 </r>
       <r>   -32.5664     0.0000     0.0000 </r>
       <r>   -32.4320     0.0000     0.0000 </r>
       <r>   -32.2977     0.0000     0.0000 </r>
       <r>   -32.1633     0.0000     0.0000 </r>
       <r>   -32.0289     0.0000     0.0000 </r>
       <r>   -31.8946     0.0000     0.0000 </r>
       <r>   -31.7602     0.0000     0.0000 </r>
       <r>   -31.6258     0.0005     0.0001 </r>
       <r>   -31.4915     0.0152     0.0021 </r>
       <r>   -31.3571     0.1932     0.0281 </r>
       <r>   -31.2227     1.0458     0.1686 </r>
       <r>   -31.0883     2.4379     0.4962 </r>
       <r>   -30.9540     2.4586     0.8265 </r>
       <r>   -30.8196     1.0727     0.9707 </r>
       <r>   -30.6852     0.2016     0.9978 </r>
       <r>   -30.5509     0.0162     0.9999 </r>
       <r>   -30.4165     0.0006     1.0000 </r>
       <r>   -30.2821     0.0000     1.0000 </r>
       <r>   -30.1478     0.0000     1.0000 </r>
       <r>   -30.0134     0.0000     1.0000 </r>
       <r>   -29.8790     0.0000     1.0000 </r>
       <r>   -29.7446     0.0000     1.0000 </r>
       <r>   -29.6103     0.0000     1.0000 </r>
       <r>   -29.4759     0.0000     1.0000 </r>
       <r>   -29.3415     0.0000     1.0000 </r>
       <r>   -29.2072     0.0000     1.0000 </r>
       <r>   -29.0728     0.0000     1.0000 </r>
       <r>   -28.9384     0.0000     1.0000 </r>
       <r>   -28.8041     0.0000     1.0000 </r>
       <r>   -28.6697     0.0000     1.0000 </r>
       <r>   -28.5353     0.0000     1.0000 </r>
       <r>   -28.4009     0.0000     1.0000 </r>
       <r>   -28.2666     0.0000     1.0000 </r>
       <r>   -28.1322     0.0000     1.0000 </r>
       <r>   -27.9978     0.0000     1.0000 </r>
       <r>   -27.8635     0.0000     1.0000 </r>
       <r>   -27.7291     0.0000     1.0000 </r>
       <r>   -27.5947     0.0000     1.0000 </r>
       <r>   -27.4604     0.0000     1.0000 </r>
       <r>   -27.3260     0.0000     1.0000 </r>
       <r>   -27.1916     0.0000     1.0000 </r>
       <r>   -27.0573     0.0000     1.0000 </r>
       <r>   -26.9229     0.0000     1.0000 </r>
       <r>   -26.7885     0.0000     1.0000 </r>
       <r>   -26.6541     0.0000     1.0000 </r>
       <r>   -26.5198     0.0000     1.0000 </r>
       <r>   -26.3854     0.0000     1.0000 </r>
       <r>   -26.2510     0.0000     1.0000 </r>
       <r>   -26.1167     0.0000     1.0000 </r>
       <r>   -25.9823     0.0000     1.0000 </r>
       <r>   -25.8479     0.0000     1.0000 </r>
       <r>   -25.7136     0.0000     1.0000 </r>
       <r>   -25.5792     0.0000     1.0000 </r>
       <r>   -25.4448     0.0000     1.0000 </r>
       <r>   -25.3104     0.0000     1.0000 </r>
       <r>   -25.1761     0.0000     1.0000 </r>
       <r>   -25.0417     0.0000     1.0000 </r>
       <r>   -24.9073     0.0000     1.0000 </r>
       <r>   -24.7730     0.0000     1.0000 </r>
       <r>   -24.6386     0.0000     1.0000 </r>
       <r>   -24.5042     0.0000     1.0000 </r>
       <r>   -24.3699     0.0000     1.0000 </r>
       <r>   -24.2355     0.0000     1.0000 </r>
       <r>   -24.1011     0.0000     1.0000 </r>
       <r>   -23.9667     0.0000     1.0000 </r>
       <r>   -23.8324     0.0000     1.0000 </r>
       <r>   -23.6980     0.0000     1.0000 </r>
       <r>   -23.5636     0.0000     1.0000 </r>
       <r>   -23.4293     0.0000     1.0000 </r>
       <r>   -23.2949     0.0000     1.0000 </r>
       <r>   -23.1605     0.0000     1.0000 </r>
       <r>   -23.0262     0.0000     1.0000 </r>
       <r>   -22.8918     0.0000     1.0000 </r>
       <r>   -22.7574     0.0000     1.0000 </r>
       <r>   -22.6230     0.0000     1.0000 </r>
       <r>   -22.4887     0.0000     1.0000 </r>
       <r>   -22.3543     0.0000     1.0000 </r>
       <r>   -22.2199     0.0000     1.0000 </r>
       <r>   -22.0856     0.0000     1.0000 </r>
       <r>   -21.9512     0.0000     1.0000 </r>
       <r>   -21.8168     0.0000     1.0000 </r>
       <r>   -21.6825     0.0000     1.0000 </r>
       <r>   -21.5481     0.0000     1.0000 </r>
       <r>   -21.4137     0.0000     1.0000 </r>
       <r>   -21.2793     0.0000     1.0000 </r>
       <r>   -21.1450     0.0000     1.0000 </r>
       <r>   -21.0106     0.0000     1.0000 </r>
       <r>   -20.8762     0.0000     1.0000 </r>
       <r>   -20.7419     0.0000     1.0000 </r>
       <r>   -20.6075     0.0000     1.0000 </r>
       <r>   -20.4731     0.0000     1.0000 </r>
       <r>   -20.3388     0.0000     1.0000 </r>
       <r>   -20.2044     0.0000     1.0000 </r>
       <r>   -20.0700     0.0000     1.0000 </r>
       <r>   -19.9357     0.0000     1.0000 </r>
       <r>   -19.8013     0.0000     1.0000 </r>
       <r>   -19.6669     0.0000     1.0000 </r>
       <r>   -19.5325     0.0000     1.0000 </r>
       <r>   -19.3982     0.0000     1.0000 </r>
       <r>   -19.2638     0.0001     1.0000 </r>
       <r>   -19.1294     0.0036     1.0005 </r>
       <r>   -18.9951     0.0678     1.0096 </r>
       <r>   -18.8607     0.5396     1.0821 </r>
       <r>   -18.7263     1.8424     1.3297 </r>
       <r>   -18.5920     2.7169     1.6948 </r>
       <r>   -18.4576     1.7343     1.9278 </r>
       <r>   -18.3232     0.4780     1.9920 </r>
       <r>   -18.1888     0.0565     1.9996 </r>
       <r>   -18.0545     0.0028     2.0000 </r>
       <r>   -17.9201     0.0001     2.0000 </r>
       <r>   -17.7857     0.0000     2.0000 </r>
       <r>   -17.6514     0.0000     2.0000 </r>
       <r>   -17.5170     0.0000     2.0000 </r>
       <r>   -17.3826     0.0000     2.0000 </r>
       <r>   -17.2483     0.0000     2.0000 </r>
       <r>   -17.1139     0.0000     2.0000 </r>
       <r>   -16.9795     0.0000     2.0000 </r>
       <r>   -16.8451     0.0000     2.0000 </r>
       <r>   -16.7108     0.0000     2.0000 </r>
       <r>   -16.5764     0.0000     2.0000 </r>
       <r>   -16.4420     0.0000     2.0000 </r>
       <r>   -16.3077     0.0000     2.0000 </r>
       <r>   -16.1733     0.0000     2.0000 </r>
       <r>   -16.0389     0.0000     2.0000 </r>
       <r>   -15.9046     0.0000     2.0000 </r>
       <r>   -15.7702     0.0000     2.0000 </r>
       <r>   -15.6358     0.0000     2.0000 </r>
       <r>   -15.5014     0.0000     2.0000 </r>
       <r>   -15.3671     0.0000     2.0000 </r>
       <r>   -15.2327     0.0000     2.0000 </r>
       <r>   -15.0983     0.0000     2.0000 </r>
       <r>   -14.9640     0.0000     2.0000 </r>
       <r>   -14.8296     0.0000     2.0000 </r>
       <r>   -14.6952     0.0000     2.0000 </r>
       <r>   -14.5609     0.0000     2.0000 </r>
       <r>   -14.4265     0.0000     2.0000 </r>
       <r>   -14.2921     0.0000     2.0000 </r>
       <r>   -14.1577     0.0000     2.0000 </r>
       <r>   -14.0234     0.0000     2.0000 </r>
       <r>   -13.8890     0.0000     2.0000 </r>
       <r>   -13.7546     0.0000     2.0000 </r>
       <r>   -13.6203     0.0000     2.0000 </r>
       <r>   -13.4859     0.0000     2.0000 </r>
       <r>   -13.3515     0.0000     2.0000 </r>
       <r>   -13.2172     0.0000     2.0000 </r>
       <r>   -13.0828     0.0000     2.0000 </r>
       <r>   -12.9484     0.0000     2.0000 </r>
       <r>   -12.8141     0.0008     2.0001 </r>
       <r>   -12.6797     0.0219     2.0030 </r>
       <r>   -12.5453     0.2492     2.0365 </r>
       <r>   -12.4109     1.2152     2.1998 </r>
       <r>   -12.2766     2.5536     2.5430 </r>
       <r>   -12.1422     2.3221     2.8550 </r>
       <r>   -12.0078     0.9132     2.9777 </r>
       <r>   -11.8735     0.1546     2.9985 </r>
       <r>   -11.7391     0.0129     3.0002 </r>
       <r>   -11.6047     0.0469     3.0065 </r>
       <r>   -11.4704     0.5210     3.0765 </r>
       <r>   -11.3360     2.4934     3.4115 </r>
       <r>   -11.2016     5.1430     4.1026 </r>
       <r>   -11.0672     4.5907     4.7195 </r>
       <r>   -10.9329     1.7721     4.9576 </r>
       <r>   -10.7985     0.2943     4.9971 </r>
       <r>   -10.6641     0.0209     4.9999 </r>
       <r>   -10.5298     0.0006     5.0000 </r>
       <r>   -10.3954     0.0000     5.0000 </r>
       <r>   -10.2610     0.0000     5.0000 </r>
       <r>   -10.1267     0.0000     5.0000 </r>
       <r>    -9.9923     0.0000     5.0000 </r>
       <r>    -9.8579     0.0000     5.0000 </r>
       <r>    -9.7235     0.0000     5.0000 </r>
       <r>    -9.5892     0.0000     5.0000 </r>
       <r>    -9.4548     0.0000     5.0000 </r>
       <r>    -9.3204     0.0000     5.0000 </r>
       <r>    -9.1861     0.0000     5.0000 </r>
       <r>    -9.0517     0.0000     5.0000 </r>
       <r>    -8.9173     0.0000     5.0000 </r>
       <r>    -8.7830     0.0000     5.0000 </r>
       <r>    -8.6486     0.0000     5.0000 </r>
       <r>    -8.5142     0.0000     5.0000 </r>
       <r>    -8.3798     0.0000     5.0000 </r>
       <r>    -8.2455     0.0000     5.0000 </r>
       <r>    -8.1111     0.0000     5.0000 </r>
       <r>    -7.9767     0.0000     5.0000 </r>
       <r>    -7.8424     0.0000     5.0000 </r>
       <r>    -7.7080     0.0000     5.0000 </r>
       <r>    -7.5736     0.0000     5.0000 </r>
       <r>    -7.4393     0.0000     5.0000 </r>
       <r>    -7.3049     0.0000     5.0000 </r>
       <r>    -7.1705     0.0000     5.0000 </r>
       <r>    -7.0361     0.0000     5.0000 </r>
       <r>    -6.9018     0.0000     5.0000 </r>
       <r>    -6.7674     0.0000     5.0000 </r>
       <r>    -6.6330     0.0000     5.0000 </r>
       <r>    -6.4987     0.0000     5.0000 </r>
       <r>    -6.3643     0.0000     5.0000 </r>
       <r>    -6.2299     0.0000     5.0000 </r>
       <r>    -6.0956     0.0000     5.0000 </r>
       <r>    -5.9612     0.0000     5.0000 </r>
       <r>    -5.8268     0.0000     5.0000 </r>
       <r>    -5.6925     0.0000     5.0000 </r>
       <r>    -5.5581     0.0000     5.0000 </r>
       <r>    -5.4237     0.0000     5.0000 </r>
       <r>    -5.2893     0.0000     5.0000 </r>
       <r>    -5.1550     0.0000     5.0000 </r>
       <r>    -5.0206     0.0010     5.0001 </r>
       <r>    -4.8862     0.0303     5.0042 </r>
       <r>    -4.7519     0.3845     5.0559 </r>
       <r>    -4.6175     2.0855     5.3361 </r>
       <r>    -4.4831     4.8710     5.9906 </r>
       <r>    -4.3488     4.9217     6.6520 </r>
       <r>    -4.2144     2.1515     6.9410 </r>
       <r>    -4.0800     0.4050     6.9955 </r>
       <r>    -3.9456     0.0326     6.9998 </r>
       <r>    -3.8113     0.0011     7.0000 </r>
       <r>    -3.6769     0.0000     7.0000 </r>
       <r>    -3.5425     0.0000     7.0000 </r>
       <r>    -3.4082     0.0000     7.0000 </r>
       <r>    -3.2738     0.0000     7.0000 </r>
       <r>    -3.1394     0.0000     7.0000 </r>
       <r>    -3.0051     0.0000     7.0000 </r>
       <r>    -2.8707     0.0000     7.0000 </r>
       <r>    -2.7363     0.0000     7.0000 </r>
       <r>    -2.6019     0.0000     7.0000 </r>
       <r>    -2.4676     0.0000     7.0000 </r>
       <r>    -2.3332     0.0000     7.0000 </r>
       <r>    -2.1988     0.0000     7.0000 </r>
       <r>    -2.0645     0.0000     7.0000 </r>
       <r>    -1.9301     0.0000     7.0000 </r>
       <r>    -1.7957     0.0000     7.0000 </r>
       <r>    -1.6614     0.0000     7.0000 </r>
       <r>    -1.5270     0.0000     7.0000 </r>
       <r>    -1.3926     0.0000     7.0000 </r>
       <r>    -1.2582     0.0000     7.0000 </r>
       <r>    -1.1239     0.0000     7.0000 </r>
       <r>    -0.9895     0.0000     7.0000 </r>
       <r>    -0.8551     0.0001     7.0000 </r>
       <r>    -0.7208     0.0052     7.0007 </r>
       <r>    -0.5864     0.0888     7.0126 </r>
       <r>    -0.4520     0.6433     7.0991 </r>
       <r>    -0.3177     2.0028     7.3682 </r>
       <r>    -0.1833     2.6943     7.7302 </r>
       <r>    -0.0489     1.5689     7.9411 </r>
       <r>     0.0855     0.3942     7.9940 </r>
       <r>     0.2198     0.0425     7.9997 </r>
       <r>     0.3542     0.0019     8.0000 </r>
       <r>     0.4886     0.0000     8.0000 </r>
       <r>     0.6229     0.0000     8.0000 </r>
       <r>     0.7573     0.0000     8.0000 </r>
       <r>     0.8917     0.0000     8.0000 </r>
       <r>     1.0260     0.0000     8.0000 </r>
       <r>     1.1604     0.0001     8.0000 </r>
       <r>     1.2948     0.0039     8.0005 </r>
       <r>     1.4291     0.0735     8.0104 </r>
       <r>     1.5635     0.6068     8.0920 </r>
       <r>     1.6979     2.4527     8.4215 </r>
       <r>     1.8323     5.9401     9.2197 </r>
       <r>     1.9666    10.0948    10.5761 </r>
       <r>     2.1010    11.1680    12.0768 </r>
       <r>     2.2354     7.8089    13.1261 </r>
       <r>     2.3697     4.2498    13.6971 </r>
       <r>     2.5041     1.7880    13.9374 </r>
       <r>     2.6385     0.4190    13.9937 </r>
       <r>     2.7728     0.0450    13.9997 </r>
       <r>     2.9072     0.0023    14.0000 </r>
       <r>     3.0416     0.0077    14.0011 </r>
       <r>     3.1760     0.1181    14.0169 </r>
       <r>     3.3103     0.7722    14.1207 </r>
       <r>     3.4447     2.1712    14.4124 </r>
       <r>     3.5791     2.6496    14.7684 </r>
       <r>     3.7134     1.5418    14.9756 </r>
       <r>     3.8478     1.2254    15.1403 </r>
       <r>     3.9822     2.3501    15.4561 </r>
       <r>     4.1165     2.5567    15.7996 </r>
       <r>     4.2509     1.2183    15.9633 </r>
       <r>     4.3853     0.2503    15.9969 </r>
       <r>     4.5197     0.0220    15.9999 </r>
       <r>     4.6540     0.0008    16.0000 </r>
       <r>     4.7884     0.0000    16.0000 </r>
       <r>     4.9228     0.0000    16.0000 </r>
       <r>     5.0571     0.0000    16.0000 </r>
       <r>     5.1915     0.0000    16.0000 </r>
       <r>     5.3259     0.0000    16.0000 </r>
       <r>     5.4602     0.0000    16.0000 </r>
       <r>     5.5946     0.0000    16.0000 </r>
       <r>     5.7290     0.0000    16.0000 </r>
       <r>     5.8634     0.0000    16.0000 </r>
       <r>     5.9977     0.0000    16.0000 </r>
      </set>
     </set>
    </array>
   </total>
  </dos>
 </calculation>
 <structure name="finalpos" >
  <crystal>
   <varray name="basis" >
    <v>       8.00000000       0.00000000       0.00000000 </v>
    <v>       0.00000000       8.00000000       0.00000000 </v>
    <v>       0.00000000       0.00000000       8.00000000 </v>
   </varray>
   <i name="volume">    512.00000000 </i>
   <varray name="rec_basis" >
    <v>       0.12500000       0.00000000       0.00000000 </v>
    <v>       0.00000000       0.12500000       0.00000000 </v>
    <v>       0.00000000       0.00000000       0.12500000 </v>
   </varray>
  </crystal>
  <varray name="positions" >
   <v>       0.00000000       0.00000000      -0.00091376 </v>
   <v>       0.00000000      -0.00000000       0.15341376 </v>
  </varray>
 </structure>
</modeling>
