   1   1   0   0
  0.5120000E+03  0.8000000E-09  0.8000000E-09  0.8000000E-09  0.5000000E-15
  1.000000000000000E-004
  CAR 
 O atom in a box                         
      6.16847535    -25.83397452  301     -8.83395981      1.00000000
    -25.834  0.0000E+00  0.0000E+00
    -25.727  0.0000E+00  0.0000E+00
    -25.621  0.0000E+00  0.0000E+00
    -25.514  0.0000E+00  0.0000E+00
    -25.407  0.0000E+00  0.0000E+00
    -25.301  0.0000E+00  0.0000E+00
    -25.194  0.0000E+00  0.0000E+00
    -25.087  0.0000E+00  0.0000E+00
    -24.981  0.5204E-14  0.5551E-15
    -24.874  0.1807E-11  0.1933E-12
    -24.767  0.3860E-09  0.4137E-10
    -24.661  0.4716E-07  0.5072E-08
    -24.554  0.3301E-05  0.3572E-06
    -24.447  0.1326E-03  0.1450E-04
    -24.341  0.3062E-02  0.3411E-03
    -24.234  0.4077E-01  0.4690E-02
    -24.127  0.3136E+00  0.3815E-01
    -24.021  0.1397E+01  0.1872E+00
    -23.914  0.3610E+01  0.5723E+00
    -23.807  0.5419E+01  0.1150E+01
    -23.700  0.4728E+01  0.1655E+01
    -23.594  0.2397E+01  0.1911E+01
    -23.487  0.7056E+00  0.1986E+01
    -23.380  0.1204E+00  0.1999E+01
    -23.274  0.1188E-01  0.2000E+01
    -23.167  0.6765E-03  0.2000E+01
    -23.060  0.2218E-04  0.2000E+01
    -22.954  0.4178E-06  0.2000E+01
    -22.847  0.4512E-08  0.2000E+01
    -22.740  0.2789E-10  0.2000E+01
    -22.634  0.9991E-13  0.2000E+01
    -22.527  0.0000E+00  0.2000E+01
    -22.420  0.0000E+00  0.2000E+01
    -22.314  0.0000E+00  0.2000E+01
    -22.207  0.0000E+00  0.2000E+01
    -22.100  0.0000E+00  0.2000E+01
    -21.994  0.0000E+00  0.2000E+01
    -21.887  0.0000E+00  0.2000E+01
    -21.780  0.0000E+00  0.2000E+01
    -21.674  0.0000E+00  0.2000E+01
    -21.567  0.0000E+00  0.2000E+01
    -21.460  0.0000E+00  0.2000E+01
    -21.354  0.0000E+00  0.2000E+01
    -21.247  0.0000E+00  0.2000E+01
    -21.140  0.0000E+00  0.2000E+01
    -21.034  0.0000E+00  0.2000E+01
    -20.927  0.0000E+00  0.2000E+01
    -20.820  0.0000E+00  0.2000E+01
    -20.714  0.0000E+00  0.2000E+01
    -20.607  0.0000E+00  0.2000E+01
    -20.500  0.0000E+00  0.2000E+01
    -20.394  0.0000E+00  0.2000E+01
    -20.287  0.0000E+00  0.2000E+01
    -20.180  0.0000E+00  0.2000E+01
    -20.074  0.0000E+00  0.2000E+01
    -19.967  0.0000E+00  0.2000E+01
    -19.860  0.0000E+00  0.2000E+01
    -19.754  0.0000E+00  0.2000E+01
    -19.647  0.0000E+00  0.2000E+01
    -19.540  0.0000E+00  0.2000E+01
    -19.433  0.0000E+00  0.2000E+01
    -19.327  0.0000E+00  0.2000E+01
    -19.220  0.0000E+00  0.2000E+01
    -19.113  0.0000E+00  0.2000E+01
    -19.007  0.0000E+00  0.2000E+01
    -18.900  0.0000E+00  0.2000E+01
    -18.793  0.0000E+00  0.2000E+01
    -18.687  0.0000E+00  0.2000E+01
    -18.580  0.0000E+00  0.2000E+01
    -18.473  0.0000E+00  0.2000E+01
    -18.367  0.0000E+00  0.2000E+01
    -18.260  0.0000E+00  0.2000E+01
    -18.153  0.0000E+00  0.2000E+01
    -18.047  0.0000E+00  0.2000E+01
    -17.940  0.0000E+00  0.2000E+01
    -17.833  0.0000E+00  0.2000E+01
    -17.727  0.0000E+00  0.2000E+01
    -17.620  0.0000E+00  0.2000E+01
    -17.513  0.0000E+00  0.2000E+01
    -17.407  0.0000E+00  0.2000E+01
    -17.300  0.0000E+00  0.2000E+01
    -17.193  0.0000E+00  0.2000E+01
    -17.087  0.0000E+00  0.2000E+01
    -16.980  0.0000E+00  0.2000E+01
    -16.873  0.0000E+00  0.2000E+01
    -16.767  0.0000E+00  0.2000E+01
    -16.660  0.0000E+00  0.2000E+01
    -16.553  0.0000E+00  0.2000E+01
    -16.447  0.0000E+00  0.2000E+01
    -16.340  0.0000E+00  0.2000E+01
    -16.233  0.0000E+00  0.2000E+01
    -16.127  0.0000E+00  0.2000E+01
    -16.020  0.0000E+00  0.2000E+01
    -15.913  0.0000E+00  0.2000E+01
    -15.807  0.0000E+00  0.2000E+01
    -15.700  0.0000E+00  0.2000E+01
    -15.593  0.0000E+00  0.2000E+01
    -15.487  0.0000E+00  0.2000E+01
    -15.380  0.0000E+00  0.2000E+01
    -15.273  0.0000E+00  0.2000E+01
    -15.166  0.0000E+00  0.2000E+01
    -15.060  0.0000E+00  0.2000E+01
    -14.953  0.0000E+00  0.2000E+01
    -14.846  0.0000E+00  0.2000E+01
    -14.740  0.0000E+00  0.2000E+01
    -14.633  0.0000E+00  0.2000E+01
    -14.526  0.0000E+00  0.2000E+01
    -14.420  0.0000E+00  0.2000E+01
    -14.313  0.0000E+00  0.2000E+01
    -14.206  0.0000E+00  0.2000E+01
    -14.100  0.0000E+00  0.2000E+01
    -13.993  0.0000E+00  0.2000E+01
    -13.886  0.0000E+00  0.2000E+01
    -13.780  0.0000E+00  0.2000E+01
    -13.673  0.0000E+00  0.2000E+01
    -13.566  0.0000E+00  0.2000E+01
    -13.460  0.0000E+00  0.2000E+01
    -13.353  0.0000E+00  0.2000E+01
    -13.246  0.0000E+00  0.2000E+01
    -13.140  0.0000E+00  0.2000E+01
    -13.033  0.0000E+00  0.2000E+01
    -12.926  0.0000E+00  0.2000E+01
    -12.820  0.0000E+00  0.2000E+01
    -12.713  0.0000E+00  0.2000E+01
    -12.606  0.0000E+00  0.2000E+01
    -12.500  0.0000E+00  0.2000E+01
    -12.393  0.0000E+00  0.2000E+01
    -12.286  0.0000E+00  0.2000E+01
    -12.180  0.0000E+00  0.2000E+01
    -12.073  0.0000E+00  0.2000E+01
    -11.966  0.0000E+00  0.2000E+01
    -11.860  0.0000E+00  0.2000E+01
    -11.753  0.0000E+00  0.2000E+01
    -11.646  0.0000E+00  0.2000E+01
    -11.540  0.0000E+00  0.2000E+01
    -11.433  0.0000E+00  0.2000E+01
    -11.326  0.0000E+00  0.2000E+01
    -11.220  0.0000E+00  0.2000E+01
    -11.113  0.0000E+00  0.2000E+01
    -11.006  0.0000E+00  0.2000E+01
    -10.899  0.0000E+00  0.2000E+01
    -10.793  0.0000E+00  0.2000E+01
    -10.686  0.0000E+00  0.2000E+01
    -10.579  0.0000E+00  0.2000E+01
    -10.473  0.0000E+00  0.2000E+01
    -10.366  0.0000E+00  0.2000E+01
    -10.259  0.0000E+00  0.2000E+01
    -10.153  0.0000E+00  0.2000E+01
    -10.046  0.1249E-13  0.2000E+01
     -9.939  0.4240E-11  0.2000E+01
     -9.833  0.9285E-09  0.2000E+01
     -9.726  0.1162E-06  0.2000E+01
     -9.619  0.8332E-05  0.2000E+01
     -9.513  0.3428E-03  0.2000E+01
     -9.406  0.8110E-02  0.2001E+01
     -9.299  0.1106E+00  0.2013E+01
     -9.193  0.8711E+00  0.2106E+01
     -9.086  0.3973E+01  0.2529E+01
     -8.979  0.1051E+02  0.3651E+01
     -8.873  0.1616E+02  0.5374E+01
     -8.766  0.1443E+02  0.6914E+01
     -8.659  0.7491E+01  0.7713E+01
     -8.553  0.2258E+01  0.7953E+01
     -8.446  0.3944E+00  0.7995E+01
     -8.339  0.3985E-01  0.8000E+01
     -8.233  0.2324E-02  0.8000E+01
     -8.126  0.7806E-04  0.8000E+01
     -8.019  0.1506E-05  0.8000E+01
     -7.913  0.1666E-07  0.8000E+01
     -7.806  0.1055E-09  0.8000E+01
     -7.699  0.3872E-12  0.8000E+01
     -7.593  0.0000E+00  0.8000E+01
     -7.486  0.0000E+00  0.8000E+01
     -7.379  0.0000E+00  0.8000E+01
     -7.273  0.0000E+00  0.8000E+01
     -7.166  0.0000E+00  0.8000E+01
     -7.059  0.0000E+00  0.8000E+01
     -6.953  0.0000E+00  0.8000E+01
     -6.846  0.0000E+00  0.8000E+01
     -6.739  0.0000E+00  0.8000E+01
     -6.633  0.0000E+00  0.8000E+01
     -6.526  0.0000E+00  0.8000E+01
     -6.419  0.0000E+00  0.8000E+01
     -6.312  0.0000E+00  0.8000E+01
     -6.206  0.0000E+00  0.8000E+01
     -6.099  0.0000E+00  0.8000E+01
     -5.992  0.0000E+00  0.8000E+01
     -5.886  0.0000E+00  0.8000E+01
     -5.779  0.0000E+00  0.8000E+01
     -5.672  0.0000E+00  0.8000E+01
     -5.566  0.0000E+00  0.8000E+01
     -5.459  0.0000E+00  0.8000E+01
     -5.352  0.0000E+00  0.8000E+01
     -5.246  0.0000E+00  0.8000E+01
     -5.139  0.0000E+00  0.8000E+01
     -5.032  0.0000E+00  0.8000E+01
     -4.926  0.0000E+00  0.8000E+01
     -4.819  0.0000E+00  0.8000E+01
     -4.712  0.0000E+00  0.8000E+01
     -4.606  0.0000E+00  0.8000E+01
     -4.499  0.0000E+00  0.8000E+01
     -4.392  0.0000E+00  0.8000E+01
     -4.286  0.0000E+00  0.8000E+01
     -4.179  0.0000E+00  0.8000E+01
     -4.072  0.0000E+00  0.8000E+01
     -3.966  0.0000E+00  0.8000E+01
     -3.859  0.0000E+00  0.8000E+01
     -3.752  0.0000E+00  0.8000E+01
     -3.646  0.0000E+00  0.8000E+01
     -3.539  0.0000E+00  0.8000E+01
     -3.432  0.0000E+00  0.8000E+01
     -3.326  0.0000E+00  0.8000E+01
     -3.219  0.0000E+00  0.8000E+01
     -3.112  0.0000E+00  0.8000E+01
     -3.006  0.0000E+00  0.8000E+01
     -2.899  0.0000E+00  0.8000E+01
     -2.792  0.0000E+00  0.8000E+01
     -2.686  0.0000E+00  0.8000E+01
     -2.579  0.0000E+00  0.8000E+01
     -2.472  0.0000E+00  0.8000E+01
     -2.366  0.0000E+00  0.8000E+01
     -2.259  0.0000E+00  0.8000E+01
     -2.152  0.0000E+00  0.8000E+01
     -2.045  0.0000E+00  0.8000E+01
     -1.939  0.0000E+00  0.8000E+01
     -1.832  0.0000E+00  0.8000E+01
     -1.725  0.0000E+00  0.8000E+01
     -1.619  0.7285E-14  0.8000E+01
     -1.512  0.2772E-11  0.8000E+01
     -1.405  0.5674E-09  0.8000E+01
     -1.299  0.6644E-07  0.8000E+01
     -1.192  0.4457E-05  0.8000E+01
     -1.085  0.1716E-03  0.8000E+01
     -0.979  0.3801E-02  0.8000E+01
     -0.872  0.4854E-01  0.8006E+01
     -0.765  0.3582E+00  0.8044E+01
     -0.659  0.1531E+01  0.8207E+01
     -0.552  0.3795E+01  0.8612E+01
     -0.445  0.5467E+01  0.9195E+01
     -0.339  0.4577E+01  0.9683E+01
     -0.232  0.2227E+01  0.9921E+01
     -0.125  0.6288E+00  0.9988E+01
     -0.019  0.1029E+00  0.9999E+01
      0.088  0.9740E-02  0.1000E+02
      0.195  0.5319E-03  0.1000E+02
      0.301  0.1672E-04  0.1000E+02
      0.408  0.3019E-06  0.1000E+02
      0.515  0.3125E-08  0.1000E+02
      0.621  0.1851E-10  0.1000E+02
      0.728  0.1124E-12  0.1000E+02
      0.835  0.1710E-10  0.1000E+02
      0.941  0.3259E-08  0.1000E+02
      1.048  0.3557E-06  0.1000E+02
      1.155  0.2227E-04  0.1000E+02
      1.261  0.8028E-03  0.1000E+02
      1.368  0.1672E-01  0.1000E+02
      1.475  0.2026E+00  0.1002E+02
      1.581  0.1442E+01  0.1018E+02
      1.688  0.6122E+01  0.1083E+02
      1.795  0.1591E+02  0.1253E+02
      1.901  0.2622E+02  0.1532E+02
      2.008  0.2842E+02  0.1836E+02
      2.115  0.2062E+02  0.2056E+02
      2.222  0.9880E+01  0.2161E+02
      2.328  0.3017E+01  0.2193E+02
      2.435  0.5669E+00  0.2199E+02
      2.542  0.6384E-01  0.2200E+02
      2.648  0.4238E-02  0.2200E+02
      2.755  0.1641E-03  0.2200E+02
      2.862  0.3683E-05  0.2200E+02
      2.968  0.4765E-07  0.2200E+02
      3.075  0.1097E-08  0.2200E+02
      3.182  0.9524E-07  0.2200E+02
      3.288  0.7001E-05  0.2200E+02
      3.395  0.2956E-03  0.2200E+02
      3.502  0.7188E-02  0.2200E+02
      3.608  0.1011E+00  0.2201E+02
      3.715  0.8288E+00  0.2210E+02
      3.822  0.4001E+01  0.2253E+02
      3.928  0.1160E+02  0.2376E+02
      4.035  0.2083E+02  0.2599E+02
      4.142  0.2412E+02  0.2856E+02
      4.248  0.1864E+02  0.3055E+02
      4.355  0.9627E+01  0.3157E+02
      4.462  0.3225E+01  0.3192E+02
      4.568  0.6719E+00  0.3199E+02
      4.675  0.8421E-01  0.3200E+02
      4.782  0.6216E-02  0.3200E+02
      4.888  0.2669E-03  0.3200E+02
      4.995  0.6622E-05  0.3200E+02
      5.102  0.9446E-07  0.3200E+02
      5.208  0.7725E-09  0.3200E+02
      5.315  0.3613E-11  0.3200E+02
      5.422  0.8326E-14  0.3200E+02
      5.528  0.0000E+00  0.3200E+02
      5.635  0.0000E+00  0.3200E+02
      5.742  0.0000E+00  0.3200E+02
      5.848  0.0000E+00  0.3200E+02
      5.955  0.0000E+00  0.3200E+02
      6.062  0.0000E+00  0.3200E+02
      6.168  0.0000E+00  0.3200E+02
