    1    1    1    1
  0.5120000E+03  0.8000000E-09  0.8000000E-09  0.8000000E-09  0.5000000E-15
  1.000000000000000E-004
  CAR 
 O atom in a box                         
      6      1     16
 
  0.0000000E+00  0.0000000E+00  0.0000000E+00  0.1000000E+01
    1      -23.833975   1.000000
    2       -8.894874   0.666667
    3       -8.894874   0.666667
    4       -8.894874   0.666667
    5       -0.480300   0.000000
    6        1.852749   0.000000
    7        1.852749   0.000000
    8        1.852749   0.000000
    9        1.956258   0.000000
   10        2.018312   0.000000
   11        2.018312   0.000000
   12        4.017448   0.000000
   13        4.017448   0.000000
   14        4.017448   0.000000
   15        4.168475   0.000000
   16        4.168475   0.000000
