       N       E                     dE             d eps       ncg     rms          rms(c)
DAV:   1    -0.314677468172E+00   -0.31468E+00   -0.62203E-06    32   0.751E-03    0.357E-03
DAV:   2    -0.314677159679E+00    0.30849E-06   -0.10281E-06    16   0.332E-03
   1 F= -.31467716E+00 E0= -.16041484E+00  d E =-.308525E+00
