<?xml version="1.0" encoding="ISO-8859-1"?>
<modeling>
 <generator>
  <i name="program" type="string">vasp </i>
  <i name="version" type="string">5.4.1  </i>
  <i name="subversion" type="string">24Jun15 (build Apr 04 2016 10:44:54) complex                          parallel </i>
  <i name="platform" type="string">Titan </i>
  <i name="date" type="string">2018 12 04 </i>
  <i name="time" type="string">10:50:08 </i>
 </generator>
 <incar>
  <i type="string" name="SYSTEM"> O atom in a box</i>
  <i type="int" name="ISTART">     1</i>
  <i type="string" name="PREC">normal</i>
  <i type="int" name="ISMEAR">     0</i>
  <v type="int" name="KPOINT_BSE">    -1     0     0     0</v>
 </incar>
 <kpoints>
  <varray name="kpointlist" >
   <v>       0.00000000       0.00000000       0.00000000 </v>
  </varray>
  <varray name="weights" >
   <v>       1.00000000 </v>
  </varray>
 </kpoints>
 <parameters>
  <separator name="general" >
   <i type="string" name="SYSTEM">O atom in a box</i>
   <i type="logical" name="LCOMPAT"> F  </i>
  </separator>
  <separator name="electronic" >
   <i type="string" name="PREC">normal</i>
   <i name="ENMAX">    400.00000000</i>
   <i name="ENAUG">    605.39200000</i>
   <i name="EDIFF">      0.00010000</i>
   <i type="int" name="IALGO">    38</i>
   <i type="int" name="IWAVPR">    10</i>
   <i type="int" name="NBANDS">    16</i>
   <i name="NELECT">      6.00000000</i>
   <i type="int" name="TURBO">     0</i>
   <i type="int" name="IRESTART">     0</i>
   <i type="int" name="NREBOOT">     0</i>
   <i type="int" name="NMIN">     0</i>
   <i name="EREF">      0.00000000</i>
   <separator name="electronic smearing" >
    <i type="int" name="ISMEAR">     0</i>
    <i name="SIGMA">      0.20000000</i>
    <i name="KSPACING">      0.50000000</i>
    <i type="logical" name="KGAMMA"> T  </i>
   </separator>
   <separator name="electronic projectors" >
    <i type="logical" name="LREAL"> F  </i>
    <v name="ROPT">      0.00000000</v>
    <i type="int" name="LMAXPAW">  -100</i>
    <i type="int" name="LMAXMIX">     2</i>
    <i type="logical" name="NLSPLINE"> F  </i>
   </separator>
   <separator name="electronic startup" >
    <i type="int" name="ISTART">     1</i>
    <i type="int" name="ICHARG">     0</i>
    <i type="int" name="INIWAV">     1</i>
   </separator>
   <separator name="electronic spin" >
    <i type="int" name="ISPIN">     1</i>
    <i type="logical" name="LNONCOLLINEAR"> F  </i>
    <v name="MAGMOM">      1.00000000</v>
    <i name="NUPDOWN">     -1.00000000</i>
    <i type="logical" name="LSORBIT"> F  </i>
    <v name="SAXIS">      0.00000000      0.00000000      1.00000000</v>
    <i type="logical" name="LSPIRAL"> F  </i>
    <v name="QSPIRAL">      0.00000000      0.00000000      0.00000000</v>
    <i type="logical" name="LZEROZ"> F  </i>
   </separator>
   <separator name="electronic exchange-correlation" >
    <i type="logical" name="LASPH"> F  </i>
    <i type="logical" name="LMETAGGA"> F  </i>
   </separator>
   <separator name="electronic convergence" >
    <i type="int" name="NELM">    60</i>
    <i type="int" name="NELMDL">     0</i>
    <i type="int" name="NELMIN">     2</i>
    <i name="ENINI">    400.00000000</i>
    <separator name="electronic convergence detail" >
     <i type="logical" name="LDIAG"> T  </i>
     <i type="logical" name="LSUBROT"> F  </i>
     <i name="WEIMIN">      0.00000000</i>
     <i name="EBREAK">      0.00000156</i>
     <i name="DEPER">      0.30000000</i>
     <i type="int" name="NRMM">     4</i>
     <i name="TIME">      0.40000000</i>
    </separator>
   </separator>
   <separator name="electronic mixer" >
    <i name="AMIX">      0.40000000</i>
    <i name="BMIX">      1.00000000</i>
    <i name="AMIN">      0.10000000</i>
    <i name="AMIX_MAG">      1.60000000</i>
    <i name="BMIX_MAG">      1.00000000</i>
    <separator name="electronic mixer details" >
     <i type="int" name="IMIX">     4</i>
     <i type="logical" name="MIXFIRST"> F  </i>
     <i type="int" name="MAXMIX">   -45</i>
     <i name="WC">    100.00000000</i>
     <i type="int" name="INIMIX">     1</i>
     <i type="int" name="MIXPRE">     1</i>
     <i type="int" name="MREMOVE">     5</i>
    </separator>
   </separator>
   <separator name="electronic dipolcorrection" >
    <i type="logical" name="LDIPOL"> F  </i>
    <i type="logical" name="LMONO"> F  </i>
    <i type="int" name="IDIPOL">     0</i>
    <i name="EPSILON">      1.00000000</i>
    <v name="DIPOL">   -100.00000000   -100.00000000   -100.00000000</v>
    <i name="EFIELD">      0.00000000</i>
   </separator>
  </separator>
  <separator name="grids" >
   <i type="int" name="NGX">    40</i>
   <i type="int" name="NGY">    40</i>
   <i type="int" name="NGZ">    40</i>
   <i type="int" name="NGXF">    80</i>
   <i type="int" name="NGYF">    80</i>
   <i type="int" name="NGZF">    80</i>
   <i type="logical" name="ADDGRID"> F  </i>
  </separator>
  <separator name="ionic" >
   <i type="int" name="NSW">     0</i>
   <i type="int" name="IBRION">    -1</i>
   <i type="int" name="ISIF">     2</i>
   <i name="PSTRESS">      0.00000000</i>
   <i name="EDIFFG">      0.00100000</i>
   <i type="int" name="NFREE">     0</i>
   <i name="POTIM">      0.50000000</i>
   <i name="SMASS">     -3.00000000</i>
   <i name="SCALEE">      1.00000000</i>
  </separator>
  <separator name="ionic md" >
   <i name="TEBEG">      0.00010000</i>
   <i name="TEEND">      0.00010000</i>
   <i type="int" name="NBLOCK">     1</i>
   <i type="int" name="KBLOCK">     1</i>
   <i type="int" name="NPACO">   256</i>
   <i name="APACO">     16.00000000</i>
  </separator>
  <separator name="symmetry" >
   <i type="int" name="ISYM">     2</i>
   <i name="SYMPREC">      0.00001000</i>
  </separator>
  <separator name="dos" >
   <i type="logical" name="LORBIT"> F  </i>
   <v name="RWIGS">     -1.00000000</v>
   <i type="int" name="NEDOS">   301</i>
   <i name="EMIN">     10.00000000</i>
   <i name="EMAX">    -10.00000000</i>
   <i name="EFERMI">      0.00000000</i>
  </separator>
  <separator name="writing" >
   <i type="int" name="NWRITE">     2</i>
   <i type="logical" name="LWAVE"> T  </i>
   <i type="logical" name="LCHARG"> T  </i>
   <i type="logical" name="LPARD"> F  </i>
   <i type="logical" name="LVTOT"> F  </i>
   <i type="logical" name="LVHAR"> F  </i>
   <i type="logical" name="LELF"> F  </i>
   <i type="logical" name="LOPTICS"> F  </i>
   <v name="STM">      0.00000000      0.00000000      0.00000000      0.00000000      0.00000000      0.00000000      0.00000000</v>
  </separator>
  <separator name="performance" >
   <i type="int" name="NPAR">    16</i>
   <i type="int" name="NSIM">     4</i>
   <i type="int" name="NBLK">    -1</i>
   <i type="logical" name="LPLANE"> T  </i>
   <i type="logical" name="LSCALAPACK"> T  </i>
   <i type="logical" name="LSCAAWARE"> F  </i>
   <i type="logical" name="LSCALU"> F  </i>
   <i type="logical" name="LASYNC"> F  </i>
   <i type="logical" name="LORBITALREAL"> F  </i>
  </separator>
  <separator name="miscellaneous" >
   <i type="int" name="IDIOT">     3</i>
   <i type="logical" name="LMUSIC"> F  </i>
   <v name="POMASS">     16.00000000</v>
   <v name="DARWINR">      0.00000000</v>
   <v name="DARWINV">      1.00000000</v>
   <i type="logical" name="LCORR"> T  </i>
  </separator>
  <i type="logical" name="GGA_COMPAT"> T  </i>
  <i type="logical" name="LBERRY"> F  </i>
  <i type="int" name="ICORELEVEL">     0</i>
  <i type="logical" name="LDAU"> F  </i>
  <i type="int" name="I_CONSTRAINED_M">     0</i>
  <separator name="electronic exchange-correlation" >
   <i type="string" name="GGA">--</i>
   <i type="int" name="VOSKOWN">     0</i>
   <i type="logical" name="LHFCALC"> F  </i>
   <i type="string" name="PRECFOCK"></i>
   <i type="logical" name="LSYMGRAD"> F  </i>
   <i type="logical" name="LHFONE"> F  </i>
   <i type="logical" name="LRHFCALC"> F  </i>
   <i type="logical" name="LTHOMAS"> F  </i>
   <i type="logical" name="LMODELHF"> F  </i>
   <i name="ENCUT4O">     -1.00000000</i>
   <i type="int" name="EXXOEP">     0</i>
   <i type="int" name="FOURORBIT">     0</i>
   <i name="AEXX">      0.00000000</i>
   <i name="HFALPHA">      0.00000000</i>
   <i name="MCALPHA">      0.00000000</i>
   <i name="ALDAX">      1.00000000</i>
   <i name="AGGAX">      1.00000000</i>
   <i name="ALDAC">      1.00000000</i>
   <i name="AGGAC">      1.00000000</i>
   <i type="int" name="NKREDX">     1</i>
   <i type="int" name="NKREDY">     1</i>
   <i type="int" name="NKREDZ">     1</i>
   <i type="logical" name="SHIFTRED"> F  </i>
   <i type="logical" name="ODDONLY"> F  </i>
   <i type="logical" name="EVENONLY"> F  </i>
   <i type="int" name="LMAXFOCK">     0</i>
   <i type="int" name="NMAXFOCKAE">     0</i>
   <i type="logical" name="LFOCKAEDFT"> F  </i>
   <i name="HFSCREEN">      0.00000000</i>
   <i name="HFSCREENC">      0.00000000</i>
   <i type="int" name="NBANDSGWLOW">     0</i>
  </separator>
  <separator name="vdW DFT" >
   <i type="logical" name="LUSE_VDW"> F  </i>
   <i name="Zab_VDW">     -0.84910000</i>
   <i name="PARAM1">      0.12340000</i>
   <i name="PARAM2">      1.00000000</i>
   <i name="PARAM3">      0.00000000</i>
  </separator>
  <separator name="model GW" >
   <i type="int" name="MODEL_GW">     0</i>
   <i name="MODEL_EPS0">    307.20000000</i>
   <i name="MODEL_ALPHA">      1.00000000</i>
  </separator>
  <separator name="linear response parameters" >
   <i type="logical" name="LEPSILON"> F  </i>
   <i type="logical" name="LRPA"> F  </i>
   <i type="logical" name="LNABLA"> F  </i>
   <i type="logical" name="LVEL"> F  </i>
   <i type="int" name="KINTER">     0</i>
   <i name="CSHIFT">      0.10000000</i>
   <i name="OMEGAMAX">     -1.00000000</i>
   <i name="DEG_THRESHOLD">      0.00200000</i>
  </separator>
  <separator name="orbital magnetization" >
   <i type="logical" name="NUCIND"> F  </i>
   <v name="MAGPOS">      0.00000000      0.00000000      0.00000000</v>
   <i type="logical" name="LNICSALL"> T  </i>
   <i type="logical" name="ORBITALMAG"> F  </i>
   <i type="logical" name="LMAGBLOCH"> F  </i>
   <i type="logical" name="LCHIMAG"> F  </i>
   <i type="logical" name="LGAUGE"> T  </i>
   <i type="int" name="MAGATOM">     0</i>
   <v name="MAGDIPOL">      0.00000000      0.00000000      0.00000000</v>
   <v name="AVECCONST">      0.00000000      0.00000000      0.00000000</v>
  </separator>
  <separator name="response functions" >
   <i type="logical" name="LADDER"> F  </i>
   <i type="logical" name="LFXC"> F  </i>
   <i type="logical" name="LHARTREE"> T  </i>
   <i type="int" name="IBSE">     0</i>
   <v type="int" name="KPOINT">    -1     0     0     0</v>
   <i type="logical" name="LTCTE"> F  </i>
   <i type="logical" name="LTETE"> F  </i>
   <i type="logical" name="LTRIPLET"> F  </i>
   <i type="logical" name="LFXCEPS"> F  </i>
   <i type="logical" name="LFXHEG"> F  </i>
   <i type="int" name="NATURALO">     0</i>
   <i type="logical" name="L2ORDER"> F  </i>
   <i type="logical" name="LUSEW"> F  </i>
   <i name="ENCUTGW">     -2.00000000</i>
   <i name="ENCUTGWSOFT">     -2.00000000</i>
   <i name="ENCUTLF">     -1.00000000</i>
   <i type="int" name="LMAXMP2">    -1</i>
   <i name="SCISSOR">      0.00000000</i>
   <i type="int" name="NOMEGA">     0</i>
   <i type="int" name="NOMEGAR">     0</i>
   <i type="int" name="NBANDSGW">    -1</i>
   <i type="int" name="NBANDSO">    -1</i>
   <i type="int" name="NBANDSV">    -1</i>
   <i type="int" name="NELM">     1</i>
   <i type="int" name="NELMHF">     1</i>
   <i type="int" name="DIM">     3</i>
   <i type="int" name="ANTIRES">     0</i>
   <i name="OMEGAMAX">    -30.00000000</i>
   <i name="OMEGAMIN">    -30.00000000</i>
   <i name="OMEGATL">   -200.00000000</i>
   <i type="int" name="OMEGAGRID">     0</i>
   <i name="CSHIFT">     -0.10000000</i>
   <i type="logical" name="SELFENERGY"> F  </i>
   <i type="logical" name="LSPECTRAL"> F  </i>
   <i type="logical" name="LSPECTRALGW"> F  </i>
   <i type="logical" name="LSINGLES"> F  </i>
   <i type="logical" name="LFERMIGW"> F  </i>
   <i type="logical" name="ODDONLYGW"> F  </i>
   <i type="logical" name="EVENONLYGW"> F  </i>
   <i type="int" name="NKREDLFX">     1</i>
   <i type="int" name="NKREDLFY">     1</i>
   <i type="int" name="NKREDLFZ">     1</i>
   <i type="int" name="MAXMEM">  1800</i>
   <i type="int" name="TELESCOPE">     0</i>
   <i type="int" name="TAUPAR">     1</i>
   <i type="int" name="OMEGAPAR">    -1</i>
   <i name="LAMBDA">      1.00000000</i>
  </separator>
  <separator name="External order field" >
   <i name="OFIELD_KAPPA">      0.00000000</i>
   <v name="OFIELD_K">      0.00000000      0.00000000      0.00000000</v>
   <i name="OFIELD_Q6_NEAR">      0.00000000</i>
   <i name="OFIELD_Q6_FAR">      0.00000000</i>
   <i name="OFIELD_A">      0.00000000</i>
  </separator>
 </parameters>
 <atominfo>
  <atoms>       1 </atoms>
  <types>       1 </types>
  <array name="atoms" >
   <dimension dim="1">ion</dimension>
   <field type="string">element</field>
   <field type="int">atomtype</field>
   <set>
    <rc><c>O </c><c>   1</c></rc>
   </set>
  </array>
  <array name="atomtypes" >
   <dimension dim="1">type</dimension>
   <field type="int">atomspertype</field>
   <field type="string">element</field>
   <field>mass</field>
   <field>valence</field>
   <field type="string">pseudopotential</field>
   <set>
    <rc><c>   1</c><c>O </c><c>     16.00000000</c><c>      6.00000000</c><c> PAW_RPBE O 08Apr2002                   </c></rc>
   </set>
  </array>
 </atominfo>
 <structure name="initialpos" >
  <crystal>
   <varray name="basis" >
    <v>       8.00000000       0.00000000       0.00000000 </v>
    <v>       0.00000000       8.00000000       0.00000000 </v>
    <v>       0.00000000       0.00000000       8.00000000 </v>
   </varray>
   <i name="volume">    512.00000000 </i>
   <varray name="rec_basis" >
    <v>       0.12500000       0.00000000       0.00000000 </v>
    <v>       0.00000000       0.12500000       0.00000000 </v>
    <v>       0.00000000       0.00000000       0.12500000 </v>
   </varray>
  </crystal>
  <varray name="positions" >
   <v>       0.00000000       0.00000000       0.00000000 </v>
  </varray>
 </structure>
 <calculation>
  <scstep>
   <time name="dav">    0.04    0.04</time>
   <time name="total">    0.12    0.12</time>
   <energy>
    <i name="alphaZ">      0.27135287 </i>
    <i name="ewald">    -91.92708002 </i>
    <i name="hartreedc">   -281.65496934 </i>
    <i name="XCdc">     26.10821304 </i>
    <i name="pawpsdc">    249.64826798 </i>
    <i name="pawaedc">   -251.46004165 </i>
    <i name="eentropy">     -0.30852464 </i>
    <i name="bandstr">    -83.25509174 </i>
    <i name="atom">    432.26319604 </i>
    <i name="e_fr_energy">     -0.31467747 </i>
    <i name="e_wo_entrp">     -0.00615283 </i>
    <i name="e_0_energy">     -0.16041515 </i>
   </energy>
  </scstep>
  <scstep>
   <time name="dav">    0.02    0.02</time>
   <time name="total">    0.07    0.07</time>
   <energy>
    <i name="alphaZ">      0.27135287 </i>
    <i name="ewald">    -91.92708002 </i>
    <i name="hartreedc">   -281.66304183 </i>
    <i name="XCdc">     26.10876861 </i>
    <i name="pawpsdc">    249.66167596 </i>
    <i name="pawaedc">   -251.47357972 </i>
    <i name="eentropy">     -0.30852464 </i>
    <i name="bandstr">    -83.24744443 </i>
    <i name="atom">    432.26319604 </i>
    <i name="e_fr_energy">     -0.31467716 </i>
    <i name="e_wo_entrp">     -0.00615252 </i>
    <i name="e_0_energy">     -0.16041484 </i>
   </energy>
  </scstep>
  <structure>
   <crystal>
    <varray name="basis" >
     <v>       8.00000000       0.00000000       0.00000000 </v>
     <v>       0.00000000       8.00000000       0.00000000 </v>
     <v>       0.00000000       0.00000000       8.00000000 </v>
    </varray>
    <i name="volume">    512.00000000 </i>
    <varray name="rec_basis" >
     <v>       0.12500000       0.00000000       0.00000000 </v>
     <v>       0.00000000       0.12500000       0.00000000 </v>
     <v>       0.00000000       0.00000000       0.12500000 </v>
    </varray>
   </crystal>
   <varray name="positions" >
    <v>       0.00000000       0.00000000       0.00000000 </v>
   </varray>
  </structure>
  <varray name="forces" >
   <v>       0.00000000       0.00000000       0.00000000 </v>
  </varray>
  <varray name="stress" >
   <v>      -2.41093422      -0.00000000       0.00000000 </v>
   <v>      -0.00000000      -2.41093422       0.00000000 </v>
   <v>      -0.00000000      -0.00000000      -2.41093422 </v>
  </varray>
  <energy>
   <i name="e_fr_energy">     -0.31467716 </i>
   <i name="e_wo_entrp">     -0.16041484 </i>
   <i name="e_0_energy">     -0.30852464 </i>
  </energy>
  <time name="totalsc">    2.10    2.16</time>
  <eigenvalues>
   <array>
    <dimension dim="1">band</dimension>
    <dimension dim="2">kpoint</dimension>
    <dimension dim="3">spin</dimension>
    <field>eigene</field>
    <field>occ</field>
    <set>
     <set comment="spin 1">
      <set comment="kpoint 1">
       <r>  -23.8340    1.0000 </r>
       <r>   -8.8949    0.6667 </r>
       <r>   -8.8949    0.6667 </r>
       <r>   -8.8949    0.6667 </r>
       <r>   -0.4803    0.0000 </r>
       <r>    1.8527    0.0000 </r>
       <r>    1.8527    0.0000 </r>
       <r>    1.8527    0.0000 </r>
       <r>    1.9563    0.0000 </r>
       <r>    2.0183    0.0000 </r>
       <r>    2.0183    0.0000 </r>
       <r>    4.0174    0.0000 </r>
       <r>    4.0174    0.0000 </r>
       <r>    4.0174    0.0000 </r>
       <r>    4.1685    0.0000 </r>
       <r>    4.1685    0.0000 </r>
      </set>
     </set>
    </set>
   </array>
  </eigenvalues>
  <separator name="orbital magnetization" >
   <v name="MAGDIPOLOUT">      0.00000000      0.00000000      0.00000000</v>
  </separator>
  <dos>
   <i name="efermi">     -8.83395981 </i>
   <total>
    <array>
     <dimension dim="1">gridpoints</dimension>
     <dimension dim="2">spin</dimension>
     <field>energy</field>
     <field>total</field>
     <field>integrated</field>
     <set>
      <set comment="spin 1">
       <r>   -25.8340     0.0000     0.0000 </r>
       <r>   -25.7273     0.0000     0.0000 </r>
       <r>   -25.6206     0.0000     0.0000 </r>
       <r>   -25.5140     0.0000     0.0000 </r>
       <r>   -25.4073     0.0000     0.0000 </r>
       <r>   -25.3006     0.0000     0.0000 </r>
       <r>   -25.1939     0.0000     0.0000 </r>
       <r>   -25.0873     0.0000     0.0000 </r>
       <r>   -24.9806     0.0000     0.0000 </r>
       <r>   -24.8739     0.0000     0.0000 </r>
       <r>   -24.7672     0.0000     0.0000 </r>
       <r>   -24.6606     0.0000     0.0000 </r>
       <r>   -24.5539     0.0000     0.0000 </r>
       <r>   -24.4472     0.0001     0.0000 </r>
       <r>   -24.3405     0.0031     0.0003 </r>
       <r>   -24.2339     0.0408     0.0047 </r>
       <r>   -24.1272     0.3136     0.0381 </r>
       <r>   -24.0205     1.3971     0.1872 </r>
       <r>   -23.9138     3.6103     0.5723 </r>
       <r>   -23.8072     5.4194     1.1504 </r>
       <r>   -23.7005     4.7283     1.6548 </r>
       <r>   -23.5938     2.3973     1.9105 </r>
       <r>   -23.4871     0.7056     1.9858 </r>
       <r>   -23.3805     0.1204     1.9987 </r>
       <r>   -23.2738     0.0119     1.9999 </r>
       <r>   -23.1671     0.0007     2.0000 </r>
       <r>   -23.0604     0.0000     2.0000 </r>
       <r>   -22.9538     0.0000     2.0000 </r>
       <r>   -22.8471     0.0000     2.0000 </r>
       <r>   -22.7404     0.0000     2.0000 </r>
       <r>   -22.6337     0.0000     2.0000 </r>
       <r>   -22.5271     0.0000     2.0000 </r>
       <r>   -22.4204     0.0000     2.0000 </r>
       <r>   -22.3137     0.0000     2.0000 </r>
       <r>   -22.2070     0.0000     2.0000 </r>
       <r>   -22.1004     0.0000     2.0000 </r>
       <r>   -21.9937     0.0000     2.0000 </r>
       <r>   -21.8870     0.0000     2.0000 </r>
       <r>   -21.7803     0.0000     2.0000 </r>
       <r>   -21.6737     0.0000     2.0000 </r>
       <r>   -21.5670     0.0000     2.0000 </r>
       <r>   -21.4603     0.0000     2.0000 </r>
       <r>   -21.3536     0.0000     2.0000 </r>
       <r>   -21.2470     0.0000     2.0000 </r>
       <r>   -21.1403     0.0000     2.0000 </r>
       <r>   -21.0336     0.0000     2.0000 </r>
       <r>   -20.9269     0.0000     2.0000 </r>
       <r>   -20.8203     0.0000     2.0000 </r>
       <r>   -20.7136     0.0000     2.0000 </r>
       <r>   -20.6069     0.0000     2.0000 </r>
       <r>   -20.5002     0.0000     2.0000 </r>
       <r>   -20.3936     0.0000     2.0000 </r>
       <r>   -20.2869     0.0000     2.0000 </r>
       <r>   -20.1802     0.0000     2.0000 </r>
       <r>   -20.0735     0.0000     2.0000 </r>
       <r>   -19.9669     0.0000     2.0000 </r>
       <r>   -19.8602     0.0000     2.0000 </r>
       <r>   -19.7535     0.0000     2.0000 </r>
       <r>   -19.6468     0.0000     2.0000 </r>
       <r>   -19.5402     0.0000     2.0000 </r>
       <r>   -19.4335     0.0000     2.0000 </r>
       <r>   -19.3268     0.0000     2.0000 </r>
       <r>   -19.2201     0.0000     2.0000 </r>
       <r>   -19.1135     0.0000     2.0000 </r>
       <r>   -19.0068     0.0000     2.0000 </r>
       <r>   -18.9001     0.0000     2.0000 </r>
       <r>   -18.7934     0.0000     2.0000 </r>
       <r>   -18.6868     0.0000     2.0000 </r>
       <r>   -18.5801     0.0000     2.0000 </r>
       <r>   -18.4734     0.0000     2.0000 </r>
       <r>   -18.3667     0.0000     2.0000 </r>
       <r>   -18.2601     0.0000     2.0000 </r>
       <r>   -18.1534     0.0000     2.0000 </r>
       <r>   -18.0467     0.0000     2.0000 </r>
       <r>   -17.9400     0.0000     2.0000 </r>
       <r>   -17.8334     0.0000     2.0000 </r>
       <r>   -17.7267     0.0000     2.0000 </r>
       <r>   -17.6200     0.0000     2.0000 </r>
       <r>   -17.5133     0.0000     2.0000 </r>
       <r>   -17.4067     0.0000     2.0000 </r>
       <r>   -17.3000     0.0000     2.0000 </r>
       <r>   -17.1933     0.0000     2.0000 </r>
       <r>   -17.0866     0.0000     2.0000 </r>
       <r>   -16.9800     0.0000     2.0000 </r>
       <r>   -16.8733     0.0000     2.0000 </r>
       <r>   -16.7666     0.0000     2.0000 </r>
       <r>   -16.6599     0.0000     2.0000 </r>
       <r>   -16.5533     0.0000     2.0000 </r>
       <r>   -16.4466     0.0000     2.0000 </r>
       <r>   -16.3399     0.0000     2.0000 </r>
       <r>   -16.2332     0.0000     2.0000 </r>
       <r>   -16.1266     0.0000     2.0000 </r>
       <r>   -16.0199     0.0000     2.0000 </r>
       <r>   -15.9132     0.0000     2.0000 </r>
       <r>   -15.8065     0.0000     2.0000 </r>
       <r>   -15.6999     0.0000     2.0000 </r>
       <r>   -15.5932     0.0000     2.0000 </r>
       <r>   -15.4865     0.0000     2.0000 </r>
       <r>   -15.3798     0.0000     2.0000 </r>
       <r>   -15.2732     0.0000     2.0000 </r>
       <r>   -15.1665     0.0000     2.0000 </r>
       <r>   -15.0598     0.0000     2.0000 </r>
       <r>   -14.9531     0.0000     2.0000 </r>
       <r>   -14.8465     0.0000     2.0000 </r>
       <r>   -14.7398     0.0000     2.0000 </r>
       <r>   -14.6331     0.0000     2.0000 </r>
       <r>   -14.5264     0.0000     2.0000 </r>
       <r>   -14.4198     0.0000     2.0000 </r>
       <r>   -14.3131     0.0000     2.0000 </r>
       <r>   -14.2064     0.0000     2.0000 </r>
       <r>   -14.0997     0.0000     2.0000 </r>
       <r>   -13.9931     0.0000     2.0000 </r>
       <r>   -13.8864     0.0000     2.0000 </r>
       <r>   -13.7797     0.0000     2.0000 </r>
       <r>   -13.6730     0.0000     2.0000 </r>
       <r>   -13.5664     0.0000     2.0000 </r>
       <r>   -13.4597     0.0000     2.0000 </r>
       <r>   -13.3530     0.0000     2.0000 </r>
       <r>   -13.2463     0.0000     2.0000 </r>
       <r>   -13.1397     0.0000     2.0000 </r>
       <r>   -13.0330     0.0000     2.0000 </r>
       <r>   -12.9263     0.0000     2.0000 </r>
       <r>   -12.8196     0.0000     2.0000 </r>
       <r>   -12.7130     0.0000     2.0000 </r>
       <r>   -12.6063     0.0000     2.0000 </r>
       <r>   -12.4996     0.0000     2.0000 </r>
       <r>   -12.3929     0.0000     2.0000 </r>
       <r>   -12.2863     0.0000     2.0000 </r>
       <r>   -12.1796     0.0000     2.0000 </r>
       <r>   -12.0729     0.0000     2.0000 </r>
       <r>   -11.9662     0.0000     2.0000 </r>
       <r>   -11.8596     0.0000     2.0000 </r>
       <r>   -11.7529     0.0000     2.0000 </r>
       <r>   -11.6462     0.0000     2.0000 </r>
       <r>   -11.5395     0.0000     2.0000 </r>
       <r>   -11.4329     0.0000     2.0000 </r>
       <r>   -11.3262     0.0000     2.0000 </r>
       <r>   -11.2195     0.0000     2.0000 </r>
       <r>   -11.1128     0.0000     2.0000 </r>
       <r>   -11.0062     0.0000     2.0000 </r>
       <r>   -10.8995     0.0000     2.0000 </r>
       <r>   -10.7928     0.0000     2.0000 </r>
       <r>   -10.6861     0.0000     2.0000 </r>
       <r>   -10.5795     0.0000     2.0000 </r>
       <r>   -10.4728     0.0000     2.0000 </r>
       <r>   -10.3661     0.0000     2.0000 </r>
       <r>   -10.2594     0.0000     2.0000 </r>
       <r>   -10.1528     0.0000     2.0000 </r>
       <r>   -10.0461     0.0000     2.0000 </r>
       <r>    -9.9394     0.0000     2.0000 </r>
       <r>    -9.8327     0.0000     2.0000 </r>
       <r>    -9.7261     0.0000     2.0000 </r>
       <r>    -9.6194     0.0000     2.0000 </r>
       <r>    -9.5127     0.0003     2.0000 </r>
       <r>    -9.4061     0.0081     2.0009 </r>
       <r>    -9.2994     0.1106     2.0127 </r>
       <r>    -9.1927     0.8711     2.1056 </r>
       <r>    -9.0860     3.9732     2.5295 </r>
       <r>    -8.9794    10.5121     3.6508 </r>
       <r>    -8.8727    16.1551     5.3742 </r>
       <r>    -8.7660    14.4304     6.9135 </r>
       <r>    -8.6593     7.4907     7.7126 </r>
       <r>    -8.5527     2.2575     7.9534 </r>
       <r>    -8.4460     0.3944     7.9955 </r>
       <r>    -8.3393     0.0399     7.9997 </r>
       <r>    -8.2326     0.0023     8.0000 </r>
       <r>    -8.1260     0.0001     8.0000 </r>
       <r>    -8.0193     0.0000     8.0000 </r>
       <r>    -7.9126     0.0000     8.0000 </r>
       <r>    -7.8059     0.0000     8.0000 </r>
       <r>    -7.6993     0.0000     8.0000 </r>
       <r>    -7.5926     0.0000     8.0000 </r>
       <r>    -7.4859     0.0000     8.0000 </r>
       <r>    -7.3792     0.0000     8.0000 </r>
       <r>    -7.2726     0.0000     8.0000 </r>
       <r>    -7.1659     0.0000     8.0000 </r>
       <r>    -7.0592     0.0000     8.0000 </r>
       <r>    -6.9525     0.0000     8.0000 </r>
       <r>    -6.8459     0.0000     8.0000 </r>
       <r>    -6.7392     0.0000     8.0000 </r>
       <r>    -6.6325     0.0000     8.0000 </r>
       <r>    -6.5258     0.0000     8.0000 </r>
       <r>    -6.4192     0.0000     8.0000 </r>
       <r>    -6.3125     0.0000     8.0000 </r>
       <r>    -6.2058     0.0000     8.0000 </r>
       <r>    -6.0991     0.0000     8.0000 </r>
       <r>    -5.9925     0.0000     8.0000 </r>
       <r>    -5.8858     0.0000     8.0000 </r>
       <r>    -5.7791     0.0000     8.0000 </r>
       <r>    -5.6724     0.0000     8.0000 </r>
       <r>    -5.5658     0.0000     8.0000 </r>
       <r>    -5.4591     0.0000     8.0000 </r>
       <r>    -5.3524     0.0000     8.0000 </r>
       <r>    -5.2457     0.0000     8.0000 </r>
       <r>    -5.1391     0.0000     8.0000 </r>
       <r>    -5.0324     0.0000     8.0000 </r>
       <r>    -4.9257     0.0000     8.0000 </r>
       <r>    -4.8190     0.0000     8.0000 </r>
       <r>    -4.7124     0.0000     8.0000 </r>
       <r>    -4.6057     0.0000     8.0000 </r>
       <r>    -4.4990     0.0000     8.0000 </r>
       <r>    -4.3923     0.0000     8.0000 </r>
       <r>    -4.2857     0.0000     8.0000 </r>
       <r>    -4.1790     0.0000     8.0000 </r>
       <r>    -4.0723     0.0000     8.0000 </r>
       <r>    -3.9656     0.0000     8.0000 </r>
       <r>    -3.8590     0.0000     8.0000 </r>
       <r>    -3.7523     0.0000     8.0000 </r>
       <r>    -3.6456     0.0000     8.0000 </r>
       <r>    -3.5389     0.0000     8.0000 </r>
       <r>    -3.4323     0.0000     8.0000 </r>
       <r>    -3.3256     0.0000     8.0000 </r>
       <r>    -3.2189     0.0000     8.0000 </r>
       <r>    -3.1122     0.0000     8.0000 </r>
       <r>    -3.0056     0.0000     8.0000 </r>
       <r>    -2.8989     0.0000     8.0000 </r>
       <r>    -2.7922     0.0000     8.0000 </r>
       <r>    -2.6855     0.0000     8.0000 </r>
       <r>    -2.5789     0.0000     8.0000 </r>
       <r>    -2.4722     0.0000     8.0000 </r>
       <r>    -2.3655     0.0000     8.0000 </r>
       <r>    -2.2588     0.0000     8.0000 </r>
       <r>    -2.1522     0.0000     8.0000 </r>
       <r>    -2.0455     0.0000     8.0000 </r>
       <r>    -1.9388     0.0000     8.0000 </r>
       <r>    -1.8321     0.0000     8.0000 </r>
       <r>    -1.7255     0.0000     8.0000 </r>
       <r>    -1.6188     0.0000     8.0000 </r>
       <r>    -1.5121     0.0000     8.0000 </r>
       <r>    -1.4054     0.0000     8.0000 </r>
       <r>    -1.2988     0.0000     8.0000 </r>
       <r>    -1.1921     0.0000     8.0000 </r>
       <r>    -1.0854     0.0002     8.0000 </r>
       <r>    -0.9787     0.0038     8.0004 </r>
       <r>    -0.8721     0.0485     8.0056 </r>
       <r>    -0.7654     0.3582     8.0438 </r>
       <r>    -0.6587     1.5307     8.2071 </r>
       <r>    -0.5520     3.7953     8.6120 </r>
       <r>    -0.4454     5.4666     9.1951 </r>
       <r>    -0.3387     4.5767     9.6833 </r>
       <r>    -0.2320     2.2265     9.9209 </r>
       <r>    -0.1253     0.6288     9.9879 </r>
       <r>    -0.0187     0.1029     9.9989 </r>
       <r>     0.0880     0.0097     9.9999 </r>
       <r>     0.1947     0.0005    10.0000 </r>
       <r>     0.3014     0.0000    10.0000 </r>
       <r>     0.4080     0.0000    10.0000 </r>
       <r>     0.5147     0.0000    10.0000 </r>
       <r>     0.6214     0.0000    10.0000 </r>
       <r>     0.7281     0.0000    10.0000 </r>
       <r>     0.8347     0.0000    10.0000 </r>
       <r>     0.9414     0.0000    10.0000 </r>
       <r>     1.0481     0.0000    10.0000 </r>
       <r>     1.1548     0.0000    10.0000 </r>
       <r>     1.2614     0.0008    10.0001 </r>
       <r>     1.3681     0.0167    10.0019 </r>
       <r>     1.4748     0.2026    10.0235 </r>
       <r>     1.5815     1.4416    10.1773 </r>
       <r>     1.6881     6.1220    10.8303 </r>
       <r>     1.7948    15.9114    12.5277 </r>
       <r>     1.9015    26.2209    15.3248 </r>
       <r>     2.0082    28.4195    18.3564 </r>
       <r>     2.1148    20.6233    20.5564 </r>
       <r>     2.2215     9.8801    21.6104 </r>
       <r>     2.3282     3.0173    21.9322 </r>
       <r>     2.4349     0.5669    21.9927 </r>
       <r>     2.5415     0.0638    21.9995 </r>
       <r>     2.6482     0.0042    22.0000 </r>
       <r>     2.7549     0.0002    22.0000 </r>
       <r>     2.8616     0.0000    22.0000 </r>
       <r>     2.9682     0.0000    22.0000 </r>
       <r>     3.0749     0.0000    22.0000 </r>
       <r>     3.1816     0.0000    22.0000 </r>
       <r>     3.2883     0.0000    22.0000 </r>
       <r>     3.3949     0.0003    22.0000 </r>
       <r>     3.5016     0.0072    22.0008 </r>
       <r>     3.6083     0.1011    22.0116 </r>
       <r>     3.7150     0.8288    22.1000 </r>
       <r>     3.8216     4.0014    22.5268 </r>
       <r>     3.9283    11.6004    23.7643 </r>
       <r>     4.0350    20.8298    25.9863 </r>
       <r>     4.1417    24.1239    28.5598 </r>
       <r>     4.2483    18.6355    30.5477 </r>
       <r>     4.3550     9.6270    31.5747 </r>
       <r>     4.4617     3.2248    31.9187 </r>
       <r>     4.5684     0.6719    31.9903 </r>
       <r>     4.6750     0.0842    31.9993 </r>
       <r>     4.7817     0.0062    32.0000 </r>
       <r>     4.8884     0.0003    32.0000 </r>
       <r>     4.9951     0.0000    32.0000 </r>
       <r>     5.1017     0.0000    32.0000 </r>
       <r>     5.2084     0.0000    32.0000 </r>
       <r>     5.3151     0.0000    32.0000 </r>
       <r>     5.4218     0.0000    32.0000 </r>
       <r>     5.5284     0.0000    32.0000 </r>
       <r>     5.6351     0.0000    32.0000 </r>
       <r>     5.7418     0.0000    32.0000 </r>
       <r>     5.8485     0.0000    32.0000 </r>
       <r>     5.9551     0.0000    32.0000 </r>
       <r>     6.0618     0.0000    32.0000 </r>
       <r>     6.1685     0.0000    32.0000 </r>
      </set>
     </set>
    </array>
   </total>
  </dos>
 </calculation>
 <structure name="finalpos" >
  <crystal>
   <varray name="basis" >
    <v>       8.00000000       0.00000000       0.00000000 </v>
    <v>       0.00000000       8.00000000       0.00000000 </v>
    <v>       0.00000000       0.00000000       8.00000000 </v>
   </varray>
   <i name="volume">    512.00000000 </i>
   <varray name="rec_basis" >
    <v>       0.12500000       0.00000000       0.00000000 </v>
    <v>       0.00000000       0.12500000       0.00000000 </v>
    <v>       0.00000000       0.00000000       0.12500000 </v>
   </varray>
  </crystal>
  <varray name="positions" >
   <v>       0.00000000       0.00000000       0.00000000 </v>
  </varray>
 </structure>
</modeling>
