   3   3   0   0
  0.8535574E+02  0.6350160E-09  0.6350160E-09  0.6350160E-09  0.1000000E-14
   2000.00000000000     
  CAR 
 unknown system                          
      8.27031462    -26.78224004  301     -6.33126518      1.00000000
    -26.782  0.0000E+00  0.0000E+00
    -26.665  0.0000E+00  0.0000E+00
    -26.549  0.0000E+00  0.0000E+00
    -26.432  0.0000E+00  0.0000E+00
    -26.315  0.0000E+00  0.0000E+00
    -26.198  0.0000E+00  0.0000E+00
    -26.081  0.0000E+00  0.0000E+00
    -25.964  0.0000E+00  0.0000E+00
    -25.848  0.0000E+00  0.0000E+00
    -25.731  0.6699E-12  0.7584E-13
    -25.614  0.3557E-07  0.4044E-08
    -25.497  0.1660E-03  0.1897E-04
    -25.380  0.6791E-01  0.7809E-02
    -25.263  0.2543E+01  0.3003E+00
    -25.146  0.9954E+01  0.1446E+01
    -25.030  0.4583E+01  0.1973E+01
    -24.913  0.2303E+00  0.2000E+01
    -24.796  0.1089E-02  0.2000E+01
    -24.679  0.4535E-06  0.2000E+01
    -24.562  0.1657E-10  0.2000E+01
    -24.445  0.0000E+00  0.2000E+01
    -24.329  0.0000E+00  0.2000E+01
    -24.212  0.0000E+00  0.2000E+01
    -24.095  0.0000E+00  0.2000E+01
    -23.978  0.0000E+00  0.2000E+01
    -23.861  0.0000E+00  0.2000E+01
    -23.744  0.0000E+00  0.2000E+01
    -23.628  0.0000E+00  0.2000E+01
    -23.511  0.0000E+00  0.2000E+01
    -23.394  0.0000E+00  0.2000E+01
    -23.277  0.0000E+00  0.2000E+01
    -23.160  0.0000E+00  0.2000E+01
    -23.043  0.0000E+00  0.2000E+01
    -22.926  0.0000E+00  0.2000E+01
    -22.810  0.0000E+00  0.2000E+01
    -22.693  0.0000E+00  0.2000E+01
    -22.576  0.0000E+00  0.2000E+01
    -22.459  0.0000E+00  0.2000E+01
    -22.342  0.0000E+00  0.2000E+01
    -22.225  0.0000E+00  0.2000E+01
    -22.109  0.0000E+00  0.2000E+01
    -21.992  0.0000E+00  0.2000E+01
    -21.875  0.0000E+00  0.2000E+01
    -21.758  0.0000E+00  0.2000E+01
    -21.641  0.0000E+00  0.2000E+01
    -21.524  0.0000E+00  0.2000E+01
    -21.408  0.0000E+00  0.2000E+01
    -21.291  0.0000E+00  0.2000E+01
    -21.174  0.0000E+00  0.2000E+01
    -21.057  0.0000E+00  0.2000E+01
    -20.940  0.0000E+00  0.2000E+01
    -20.823  0.0000E+00  0.2000E+01
    -20.706  0.0000E+00  0.2000E+01
    -20.590  0.0000E+00  0.2000E+01
    -20.473  0.0000E+00  0.2000E+01
    -20.356  0.0000E+00  0.2000E+01
    -20.239  0.0000E+00  0.2000E+01
    -20.122  0.0000E+00  0.2000E+01
    -20.005  0.0000E+00  0.2000E+01
    -19.889  0.0000E+00  0.2000E+01
    -19.772  0.0000E+00  0.2000E+01
    -19.655  0.0000E+00  0.2000E+01
    -19.538  0.0000E+00  0.2000E+01
    -19.421  0.0000E+00  0.2000E+01
    -19.304  0.0000E+00  0.2000E+01
    -19.188  0.0000E+00  0.2000E+01
    -19.071  0.0000E+00  0.2000E+01
    -18.954  0.0000E+00  0.2000E+01
    -18.837  0.0000E+00  0.2000E+01
    -18.720  0.0000E+00  0.2000E+01
    -18.603  0.0000E+00  0.2000E+01
    -18.486  0.0000E+00  0.2000E+01
    -18.370  0.0000E+00  0.2000E+01
    -18.253  0.0000E+00  0.2000E+01
    -18.136  0.0000E+00  0.2000E+01
    -18.019  0.0000E+00  0.2000E+01
    -17.902  0.0000E+00  0.2000E+01
    -17.785  0.0000E+00  0.2000E+01
    -17.669  0.0000E+00  0.2000E+01
    -17.552  0.0000E+00  0.2000E+01
    -17.435  0.0000E+00  0.2000E+01
    -17.318  0.0000E+00  0.2000E+01
    -17.201  0.0000E+00  0.2000E+01
    -17.084  0.0000E+00  0.2000E+01
    -16.968  0.0000E+00  0.2000E+01
    -16.851  0.0000E+00  0.2000E+01
    -16.734  0.0000E+00  0.2000E+01
    -16.617  0.0000E+00  0.2000E+01
    -16.500  0.0000E+00  0.2000E+01
    -16.383  0.0000E+00  0.2000E+01
    -16.266  0.0000E+00  0.2000E+01
    -16.150  0.0000E+00  0.2000E+01
    -16.033  0.0000E+00  0.2000E+01
    -15.916  0.0000E+00  0.2000E+01
    -15.799  0.0000E+00  0.2000E+01
    -15.682  0.0000E+00  0.2000E+01
    -15.565  0.0000E+00  0.2000E+01
    -15.449  0.0000E+00  0.2000E+01
    -15.332  0.0000E+00  0.2000E+01
    -15.215  0.0000E+00  0.2000E+01
    -15.098  0.0000E+00  0.2000E+01
    -14.981  0.0000E+00  0.2000E+01
    -14.864  0.0000E+00  0.2000E+01
    -14.748  0.0000E+00  0.2000E+01
    -14.631  0.0000E+00  0.2000E+01
    -14.514  0.0000E+00  0.2000E+01
    -14.397  0.0000E+00  0.2000E+01
    -14.280  0.0000E+00  0.2000E+01
    -14.163  0.0000E+00  0.2000E+01
    -14.046  0.9967E-15  0.2000E+01
    -13.930  0.1303E-09  0.2000E+01
    -13.813  0.1164E-05  0.2000E+01
    -13.696  0.7935E-03  0.2000E+01
    -13.579  0.5281E-01  0.2006E+01
    -13.462  0.5123E+00  0.2067E+01
    -13.345  0.1115E+01  0.2197E+01
    -13.229  0.1439E+01  0.2364E+01
    -13.112  0.1572E+01  0.2544E+01
    -12.995  0.1673E+01  0.2735E+01
    -12.878  0.1697E+01  0.2928E+01
    -12.761  0.1427E+01  0.3092E+01
    -12.644  0.1228E+01  0.3233E+01
    -12.528  0.1090E+01  0.3359E+01
    -12.411  0.1896E+01  0.3578E+01
    -12.294  0.1889E+01  0.3796E+01
    -12.177  0.1065E+01  0.3918E+01
    -12.060  0.5904E+00  0.3985E+01
    -11.943  0.1277E+00  0.3999E+01
    -11.826  0.4713E-02  0.4000E+01
    -11.710  0.2149E-04  0.4000E+01
    -11.593  0.9822E-08  0.4000E+01
    -11.476  0.3997E-12  0.4000E+01
    -11.359  0.0000E+00  0.4000E+01
    -11.242  0.0000E+00  0.4000E+01
    -11.125  0.0000E+00  0.4000E+01
    -11.009  0.0000E+00  0.4000E+01
    -10.892  0.0000E+00  0.4000E+01
    -10.775  0.0000E+00  0.4000E+01
    -10.658  0.0000E+00  0.4000E+01
    -10.541  0.0000E+00  0.4000E+01
    -10.424  0.0000E+00  0.4000E+01
    -10.308  0.0000E+00  0.4000E+01
    -10.191  0.4583E-12  0.4000E+01
    -10.074  0.1213E-07  0.4000E+01
     -9.957  0.2829E-04  0.4000E+01
     -9.840  0.6208E-02  0.4001E+01
     -9.723  0.1480E+00  0.4017E+01
     -9.606  0.5742E+00  0.4082E+01
     -9.490  0.9617E+00  0.4191E+01
     -9.373  0.1326E+01  0.4342E+01
     -9.256  0.1774E+01  0.4546E+01
     -9.139  0.1653E+01  0.4737E+01
     -9.022  0.2149E+01  0.4985E+01
     -8.905  0.2200E+01  0.5238E+01
     -8.789  0.2127E+01  0.5482E+01
     -8.672  0.1823E+01  0.5692E+01
     -8.555  0.1453E+01  0.5861E+01
     -8.438  0.9387E+00  0.5971E+01
     -8.321  0.2355E+00  0.5999E+01
     -8.204  0.1068E-01  0.6000E+01
     -8.088  0.5483E-04  0.6000E+01
     -7.971  0.2403E-07  0.6000E+01
     -7.854  0.7769E-12  0.6000E+01
     -7.737  0.0000E+00  0.6000E+01
     -7.620  0.1325E-12  0.6000E+01
     -7.503  0.5500E-08  0.6000E+01
     -7.386  0.2214E-04  0.6000E+01
     -7.270  0.9290E-02  0.6001E+01
     -7.153  0.4558E+00  0.6052E+01
     -7.036  0.3291E+01  0.6424E+01
     -6.919  0.5448E+01  0.7044E+01
     -6.802  0.4886E+01  0.7612E+01
     -6.685  0.2825E+01  0.7945E+01
     -6.569  0.4545E+00  0.7999E+01
     -6.452  0.1120E-01  0.8000E+01
     -6.335  0.2818E-04  0.8000E+01
     -6.218  0.5776E-08  0.8000E+01
     -6.101  0.8497E-13  0.8000E+01
     -5.984  0.0000E+00  0.8000E+01
     -5.868  0.0000E+00  0.8000E+01
     -5.751  0.0000E+00  0.8000E+01
     -5.634  0.0000E+00  0.8000E+01
     -5.517  0.0000E+00  0.8000E+01
     -5.400  0.0000E+00  0.8000E+01
     -5.283  0.0000E+00  0.8000E+01
     -5.166  0.0000E+00  0.8000E+01
     -5.050  0.0000E+00  0.8000E+01
     -4.933  0.0000E+00  0.8000E+01
     -4.816  0.0000E+00  0.8000E+01
     -4.699  0.0000E+00  0.8000E+01
     -4.582  0.0000E+00  0.8000E+01
     -4.465  0.0000E+00  0.8000E+01
     -4.349  0.0000E+00  0.8000E+01
     -4.232  0.0000E+00  0.8000E+01
     -4.115  0.0000E+00  0.8000E+01
     -3.998  0.0000E+00  0.8000E+01
     -3.881  0.0000E+00  0.8000E+01
     -3.764  0.0000E+00  0.8000E+01
     -3.648  0.0000E+00  0.8000E+01
     -3.531  0.0000E+00  0.8000E+01
     -3.414  0.0000E+00  0.8000E+01
     -3.297  0.0000E+00  0.8000E+01
     -3.180  0.0000E+00  0.8000E+01
     -3.063  0.0000E+00  0.8000E+01
     -2.947  0.0000E+00  0.8000E+01
     -2.830  0.0000E+00  0.8000E+01
     -2.713  0.0000E+00  0.8000E+01
     -2.596  0.0000E+00  0.8000E+01
     -2.479  0.0000E+00  0.8000E+01
     -2.362  0.0000E+00  0.8000E+01
     -2.245  0.1057E-11  0.8000E+01
     -2.129  0.2281E-07  0.8000E+01
     -2.012  0.4998E-04  0.8000E+01
     -1.895  0.1242E-01  0.8001E+01
     -1.778  0.4132E+00  0.8048E+01
     -1.661  0.2344E+01  0.8311E+01
     -1.544  0.2841E+01  0.8632E+01
     -1.428  0.2317E+01  0.8896E+01
     -1.311  0.1819E+01  0.9104E+01
     -1.194  0.1958E+01  0.9332E+01
     -1.077  0.2537E+01  0.9629E+01
     -0.960  0.2367E+01  0.9909E+01
     -0.843  0.7448E+00  0.9997E+01
     -0.727  0.2756E-01  0.1000E+02
     -0.610  0.9026E-04  0.1000E+02
     -0.493  0.2261E-07  0.1000E+02
     -0.376  0.3995E-12  0.1000E+02
     -0.259  0.0000E+00  0.1000E+02
     -0.142  0.0000E+00  0.1000E+02
     -0.025  0.0000E+00  0.1000E+02
      0.091  0.0000E+00  0.1000E+02
      0.208  0.0000E+00  0.1000E+02
      0.325  0.0000E+00  0.1000E+02
      0.442  0.0000E+00  0.1000E+02
      0.559  0.1929E-13  0.1000E+02
      0.676  0.8154E-09  0.1000E+02
      0.792  0.2971E-05  0.1000E+02
      0.909  0.1025E-02  0.1000E+02
      1.026  0.4333E-01  0.1000E+02
      1.143  0.3688E+00  0.1005E+02
      1.260  0.9990E+00  0.1016E+02
      1.377  0.1297E+01  0.1031E+02
      1.493  0.1613E+01  0.1049E+02
      1.610  0.2272E+01  0.1074E+02
      1.727  0.2801E+01  0.1106E+02
      1.844  0.3917E+01  0.1151E+02
      1.961  0.4095E+01  0.1197E+02
      2.078  0.4215E+01  0.1246E+02
      2.195  0.3968E+01  0.1292E+02
      2.311  0.3890E+01  0.1338E+02
      2.428  0.3777E+01  0.1382E+02
      2.545  0.3284E+01  0.1420E+02
      2.662  0.3176E+01  0.1456E+02
      2.779  0.6887E+01  0.1535E+02
      2.896  0.1353E+02  0.1690E+02
      3.012  0.1488E+02  0.1862E+02
      3.129  0.1036E+02  0.1982E+02
      3.246  0.6177E+01  0.2053E+02
      3.363  0.5862E+01  0.2120E+02
      3.480  0.4588E+01  0.2173E+02
      3.597  0.1916E+01  0.2196E+02
      3.713  0.3517E+00  0.2200E+02
      3.830  0.1446E-01  0.2200E+02
      3.947  0.3047E-01  0.2200E+02
      4.064  0.2406E+00  0.2203E+02
      4.181  0.5478E+00  0.2209E+02
      4.298  0.8700E+00  0.2219E+02
      4.415  0.1353E+01  0.2234E+02
      4.531  0.1346E+01  0.2250E+02
      4.648  0.1652E+01  0.2269E+02
      4.765  0.1931E+01  0.2291E+02
      4.882  0.2230E+01  0.2317E+02
      4.999  0.2360E+01  0.2344E+02
      5.116  0.1802E+01  0.2365E+02
      5.232  0.1152E+01  0.2378E+02
      5.349  0.1353E+01  0.2394E+02
      5.466  0.2170E+01  0.2419E+02
      5.583  0.4516E+01  0.2470E+02
      5.700  0.1003E+02  0.2585E+02
      5.817  0.8415E+01  0.2683E+02
      5.933  0.8967E+01  0.2786E+02
      6.050  0.1280E+02  0.2933E+02
      6.167  0.8019E+01  0.3025E+02
      6.284  0.5338E+01  0.3087E+02
      6.401  0.4985E+01  0.3145E+02
      6.518  0.4975E+01  0.3202E+02
      6.635  0.1298E+02  0.3351E+02
      6.751  0.1773E+02  0.3556E+02
      6.868  0.3773E+01  0.3599E+02
      6.985  0.9099E-01  0.3600E+02
      7.102  0.2091E-03  0.3600E+02
      7.219  0.4310E-07  0.3600E+02
      7.336  0.7899E-12  0.3600E+02
      7.452  0.0000E+00  0.3600E+02
      7.569  0.0000E+00  0.3600E+02
      7.686  0.0000E+00  0.3600E+02
      7.803  0.0000E+00  0.3600E+02
      7.920  0.0000E+00  0.3600E+02
      8.037  0.0000E+00  0.3600E+02
      8.153  0.0000E+00  0.3600E+02
      8.270  0.0000E+00  0.3600E+02
      8.17005547    -26.24841324  301     -6.27853087      1.00000000
    -26.248  0.0000E+00  0.0000E+00
    -26.134  0.0000E+00  0.0000E+00
    -26.019  0.0000E+00  0.0000E+00
    -25.904  0.0000E+00  0.0000E+00
    -25.790  0.0000E+00  0.0000E+00
    -25.675  0.0000E+00  0.0000E+00
    -25.560  0.0000E+00  0.0000E+00
    -25.445  0.0000E+00  0.0000E+00
    -25.331  0.0000E+00  0.0000E+00
    -25.216  0.4684E-14  0.5373E-15
    -25.101  0.3168E-09  0.3635E-10
    -24.986  0.1647E-05  0.1890E-06
    -24.872  0.6896E-03  0.7931E-04
    -24.757  0.2562E-01  0.3018E-02
    -24.642  0.9962E-01  0.1445E-01
    -24.527  0.4604E-01  0.1973E-01
    -24.413  0.2337E-02  0.2000E-01
    -24.298  0.1094E-04  0.2000E-01
    -24.183  0.4209E-08  0.2000E-01
    -24.069  0.1256E-12  0.2000E-01
    -23.954  0.0000E+00  0.2000E-01
    -23.839  0.0000E+00  0.2000E-01
    -23.724  0.0000E+00  0.2000E-01
    -23.610  0.0000E+00  0.2000E-01
    -23.495  0.0000E+00  0.2000E-01
    -23.380  0.0000E+00  0.2000E-01
    -23.265  0.0000E+00  0.2000E-01
    -23.151  0.0000E+00  0.2000E-01
    -23.036  0.0000E+00  0.2000E-01
    -22.921  0.0000E+00  0.2000E-01
    -22.807  0.0000E+00  0.2000E-01
    -22.692  0.0000E+00  0.2000E-01
    -22.577  0.0000E+00  0.2000E-01
    -22.462  0.0000E+00  0.2000E-01
    -22.348  0.0000E+00  0.2000E-01
    -22.233  0.0000E+00  0.2000E-01
    -22.118  0.0000E+00  0.2000E-01
    -22.003  0.0000E+00  0.2000E-01
    -21.889  0.0000E+00  0.2000E-01
    -21.774  0.0000E+00  0.2000E-01
    -21.659  0.0000E+00  0.2000E-01
    -21.545  0.0000E+00  0.2000E-01
    -21.430  0.0000E+00  0.2000E-01
    -21.315  0.0000E+00  0.2000E-01
    -21.200  0.0000E+00  0.2000E-01
    -21.086  0.0000E+00  0.2000E-01
    -20.971  0.0000E+00  0.2000E-01
    -20.856  0.0000E+00  0.2000E-01
    -20.741  0.0000E+00  0.2000E-01
    -20.627  0.0000E+00  0.2000E-01
    -20.512  0.0000E+00  0.2000E-01
    -20.397  0.0000E+00  0.2000E-01
    -20.283  0.0000E+00  0.2000E-01
    -20.168  0.0000E+00  0.2000E-01
    -20.053  0.0000E+00  0.2000E-01
    -19.938  0.0000E+00  0.2000E-01
    -19.824  0.0000E+00  0.2000E-01
    -19.709  0.0000E+00  0.2000E-01
    -19.594  0.0000E+00  0.2000E-01
    -19.479  0.0000E+00  0.2000E-01
    -19.365  0.0000E+00  0.2000E-01
    -19.250  0.0000E+00  0.2000E-01
    -19.135  0.0000E+00  0.2000E-01
    -19.021  0.0000E+00  0.2000E-01
    -18.906  0.0000E+00  0.2000E-01
    -18.791  0.0000E+00  0.2000E-01
    -18.676  0.0000E+00  0.2000E-01
    -18.562  0.0000E+00  0.2000E-01
    -18.447  0.0000E+00  0.2000E-01
    -18.332  0.0000E+00  0.2000E-01
    -18.217  0.0000E+00  0.2000E-01
    -18.103  0.0000E+00  0.2000E-01
    -17.988  0.0000E+00  0.2000E-01
    -17.873  0.0000E+00  0.2000E-01
    -17.759  0.0000E+00  0.2000E-01
    -17.644  0.0000E+00  0.2000E-01
    -17.529  0.0000E+00  0.2000E-01
    -17.414  0.0000E+00  0.2000E-01
    -17.300  0.0000E+00  0.2000E-01
    -17.185  0.0000E+00  0.2000E-01
    -17.070  0.0000E+00  0.2000E-01
    -16.955  0.0000E+00  0.2000E-01
    -16.841  0.0000E+00  0.2000E-01
    -16.726  0.0000E+00  0.2000E-01
    -16.611  0.0000E+00  0.2000E-01
    -16.497  0.0000E+00  0.2000E-01
    -16.382  0.0000E+00  0.2000E-01
    -16.267  0.0000E+00  0.2000E-01
    -16.152  0.0000E+00  0.2000E-01
    -16.038  0.0000E+00  0.2000E-01
    -15.923  0.0000E+00  0.2000E-01
    -15.808  0.0000E+00  0.2000E-01
    -15.693  0.0000E+00  0.2000E-01
    -15.579  0.0000E+00  0.2000E-01
    -15.464  0.0000E+00  0.2000E-01
    -15.349  0.0000E+00  0.2000E-01
    -15.235  0.0000E+00  0.2000E-01
    -15.120  0.0000E+00  0.2000E-01
    -15.005  0.0000E+00  0.2000E-01
    -14.890  0.0000E+00  0.2000E-01
    -14.776  0.0000E+00  0.2000E-01
    -14.661  0.0000E+00  0.2000E-01
    -14.546  0.0000E+00  0.2000E-01
    -14.431  0.0000E+00  0.2000E-01
    -14.317  0.0000E+00  0.2000E-01
    -14.202  0.0000E+00  0.2000E-01
    -14.087  0.0000E+00  0.2000E-01
    -13.972  0.0000E+00  0.2000E-01
    -13.858  0.0000E+00  0.2000E-01
    -13.743  0.0000E+00  0.2000E-01
    -13.628  0.0000E+00  0.2000E-01
    -13.514  0.0000E+00  0.2000E-01
    -13.399  0.0000E+00  0.2000E-01
    -13.284  0.0000E+00  0.2000E-01
    -13.169  0.0000E+00  0.2000E-01
    -13.055  0.0000E+00  0.2000E-01
    -12.940  0.0000E+00  0.2000E-01
    -12.825  0.0000E+00  0.2000E-01
    -12.710  0.0000E+00  0.2000E-01
    -12.596  0.0000E+00  0.2000E-01
    -12.481  0.6723E-12  0.2000E-01
    -12.366  0.1549E-07  0.2000E-01
    -12.252  0.2785E-04  0.2000E-01
    -12.137  0.4167E-02  0.2048E-01
    -12.022  0.5887E-01  0.2724E-01
    -11.907  0.9343E-01  0.3795E-01
    -11.793  0.1749E-01  0.3996E-01
    -11.678  0.3339E-03  0.4000E-01
    -11.563  0.5551E-06  0.4000E-01
    -11.448  0.7365E-10  0.4000E-01
    -11.334  0.7355E-15  0.4000E-01
    -11.219  0.0000E+00  0.4000E-01
    -11.104  0.0000E+00  0.4000E-01
    -10.990  0.0000E+00  0.4000E-01
    -10.875  0.0000E+00  0.4000E-01
    -10.760  0.0000E+00  0.4000E-01
    -10.645  0.0000E+00  0.4000E-01
    -10.531  0.0000E+00  0.4000E-01
    -10.416  0.0000E+00  0.4000E-01
    -10.301  0.0000E+00  0.4000E-01
    -10.186  0.0000E+00  0.4000E-01
    -10.072  0.0000E+00  0.4000E-01
     -9.957  0.0000E+00  0.4000E-01
     -9.842  0.3871E-16  0.4000E-01
     -9.728  0.6584E-11  0.4000E-01
     -9.613  0.8936E-07  0.4000E-01
     -9.498  0.9558E-04  0.4001E-01
     -9.383  0.8677E-02  0.4101E-01
     -9.269  0.7705E-01  0.4985E-01
     -9.154  0.7901E-01  0.5891E-01
     -9.039  0.9380E-02  0.5999E-01
     -8.924  0.1094E-03  0.6000E-01
     -8.810  0.1085E-06  0.6000E-01
     -8.695  0.8498E-11  0.6000E-01
     -8.580  0.3871E-16  0.6000E-01
     -8.466  0.0000E+00  0.6000E-01
     -8.351  0.0000E+00  0.6000E-01
     -8.236  0.0000E+00  0.6000E-01
     -8.121  0.0000E+00  0.6000E-01
     -8.007  0.0000E+00  0.6000E-01
     -7.892  0.0000E+00  0.6000E-01
     -7.777  0.0000E+00  0.6000E-01
     -7.662  0.0000E+00  0.6000E-01
     -7.548  0.0000E+00  0.6000E-01
     -7.433  0.0000E+00  0.6000E-01
     -7.318  0.4249E-13  0.6000E-01
     -7.204  0.1802E-08  0.6000E-01
     -7.089  0.5912E-05  0.6000E-01
     -6.974  0.1582E-02  0.6018E-01
     -6.859  0.3851E-01  0.6460E-01
     -6.745  0.1014E+00  0.7623E-01
     -6.630  0.3178E-01  0.7988E-01
     -6.515  0.1060E-02  0.8000E-01
     -6.400  0.3178E-05  0.8000E-01
     -6.286  0.7719E-09  0.8000E-01
     -6.171  0.1446E-13  0.8000E-01
     -6.056  0.0000E+00  0.8000E-01
     -5.942  0.0000E+00  0.8000E-01
     -5.827  0.0000E+00  0.8000E-01
     -5.712  0.0000E+00  0.8000E-01
     -5.597  0.0000E+00  0.8000E-01
     -5.483  0.0000E+00  0.8000E-01
     -5.368  0.0000E+00  0.8000E-01
     -5.253  0.0000E+00  0.8000E-01
     -5.138  0.0000E+00  0.8000E-01
     -5.024  0.0000E+00  0.8000E-01
     -4.909  0.0000E+00  0.8000E-01
     -4.794  0.0000E+00  0.8000E-01
     -4.680  0.0000E+00  0.8000E-01
     -4.565  0.0000E+00  0.8000E-01
     -4.450  0.0000E+00  0.8000E-01
     -4.335  0.0000E+00  0.8000E-01
     -4.221  0.0000E+00  0.8000E-01
     -4.106  0.0000E+00  0.8000E-01
     -3.991  0.0000E+00  0.8000E-01
     -3.876  0.0000E+00  0.8000E-01
     -3.762  0.0000E+00  0.8000E-01
     -3.647  0.0000E+00  0.8000E-01
     -3.532  0.0000E+00  0.8000E-01
     -3.417  0.0000E+00  0.8000E-01
     -3.303  0.0000E+00  0.8000E-01
     -3.188  0.0000E+00  0.8000E-01
     -3.073  0.0000E+00  0.8000E-01
     -2.959  0.0000E+00  0.8000E-01
     -2.844  0.0000E+00  0.8000E-01
     -2.729  0.0000E+00  0.8000E-01
     -2.614  0.0000E+00  0.8000E-01
     -2.500  0.0000E+00  0.8000E-01
     -2.385  0.0000E+00  0.8000E-01
     -2.270  0.0000E+00  0.8000E-01
     -2.155  0.0000E+00  0.8000E-01
     -2.041  0.0000E+00  0.8000E-01
     -1.926  0.1935E-16  0.8000E-01
     -1.811  0.4014E-11  0.8000E-01
     -1.697  0.6123E-07  0.8000E-01
     -1.582  0.7345E-04  0.8001E-01
     -1.467  0.7442E-02  0.8086E-01
     -1.352  0.7318E-01  0.8926E-01
     -1.238  0.8263E-01  0.9874E-01
     -1.123  0.1086E-01  0.9998E-01
     -1.008  0.1413E-03  0.1000E+00
     -0.893  0.1571E-06  0.1000E+00
     -0.779  0.1383E-10  0.1000E+00
     -0.664  0.9677E-16  0.1000E+00
     -0.549  0.0000E+00  0.1000E+00
     -0.435  0.0000E+00  0.1000E+00
     -0.320  0.0000E+00  0.1000E+00
     -0.205  0.0000E+00  0.1000E+00
     -0.090  0.0000E+00  0.1000E+00
      0.024  0.0000E+00  0.1000E+00
      0.139  0.0000E+00  0.1000E+00
      0.254  0.0000E+00  0.1000E+00
      0.369  0.0000E+00  0.1000E+00
      0.483  0.0000E+00  0.1000E+00
      0.598  0.0000E+00  0.1000E+00
      0.713  0.0000E+00  0.1000E+00
      0.827  0.0000E+00  0.1000E+00
      0.942  0.0000E+00  0.1000E+00
      1.057  0.0000E+00  0.1000E+00
      1.172  0.2322E-15  0.1000E+00
      1.286  0.2927E-10  0.1000E+00
      1.401  0.2773E-06  0.1000E+00
      1.516  0.2085E-03  0.1000E+00
      1.631  0.1351E-01  0.1016E+00
      1.745  0.8789E-01  0.1117E+00
      1.860  0.7149E-01  0.1199E+00
      1.975  0.6696E-01  0.1275E+00
      2.089  0.9201E-01  0.1381E+00
      2.204  0.1628E-01  0.1400E+00
      2.319  0.2925E-03  0.1400E+00
      2.434  0.4451E-05  0.1400E+00
      2.548  0.1230E-02  0.1401E+00
      2.663  0.3443E-01  0.1441E+00
      2.778  0.1173E+00  0.1575E+00
      2.893  0.1285E+00  0.1723E+00
      3.007  0.9906E-01  0.1836E+00
      3.122  0.1077E+00  0.1960E+00
      3.237  0.7011E-01  0.2041E+00
      3.351  0.1029E+00  0.2159E+00
      3.466  0.3486E-01  0.2199E+00
      3.581  0.1282E-02  0.2200E+00
      3.696  0.4263E-05  0.2200E+00
      3.810  0.1152E-08  0.2200E+00
      3.925  0.2576E-13  0.2200E+00
      4.040  0.1434E-09  0.2200E+00
      4.155  0.9138E-06  0.2200E+00
      4.269  0.4665E-03  0.2201E+00
      4.384  0.2091E-01  0.2225E+00
      4.499  0.9672E-01  0.2335E+00
      4.613  0.5298E-01  0.2396E+00
      4.728  0.3228E-02  0.2400E+00
      4.843  0.1837E-04  0.2400E+00
      4.958  0.8651E-08  0.2400E+00
      5.072  0.3171E-12  0.2400E+00
      5.187  0.7763E-11  0.2400E+00
      5.302  0.1013E-06  0.2400E+00
      5.417  0.1043E-03  0.2400E+00
      5.531  0.9126E-02  0.2411E+00
      5.646  0.7834E-01  0.2500E+00
      5.761  0.8171E-01  0.2594E+00
      5.875  0.8072E-01  0.2687E+00
      5.990  0.1918E+00  0.2907E+00
      6.105  0.1462E+00  0.3075E+00
      6.220  0.9456E-01  0.3183E+00
      6.334  0.1451E-01  0.3200E+00
      6.449  0.5371E-02  0.3206E+00
      6.564  0.9589E-01  0.3316E+00
      6.679  0.1978E+00  0.3543E+00
      6.793  0.4856E-01  0.3599E+00
      6.908  0.1246E-02  0.3600E+00
      7.023  0.2839E-05  0.3600E+00
      7.138  0.5217E-09  0.3600E+00
      7.252  0.7393E-14  0.3600E+00
      7.367  0.0000E+00  0.3600E+00
      7.482  0.0000E+00  0.3600E+00
      7.596  0.0000E+00  0.3600E+00
      7.711  0.0000E+00  0.3600E+00
      7.826  0.0000E+00  0.3600E+00
      7.941  0.0000E+00  0.3600E+00
      8.055  0.0000E+00  0.3600E+00
      8.170  0.0000E+00  0.3600E+00
