    3    3  100    1
  0.8535574E+02  0.6350160E-09  0.6350160E-09  0.6350160E-09  0.1000000E-14
   2000.00000000000     
  CAR 
 unknown system                          
      8      1     18
 
  0.0000000E+00  0.0000000E+00  0.0000000E+00  0.1000000E+01
    1      -24.683937   1.000000
    2      -11.997097   1.000000
    3       -9.267276   1.000000
    4       -6.807107   1.000000
    5       -1.345800   0.000000
    6        1.730513   0.000000
    7        1.996820   0.000000
    8        2.721850   0.000000
    9        2.871996   0.000000
   10        3.064258   0.000000
   11        3.293792   0.000000
   12        4.466184   0.000000
   13        5.645640   0.000000
   14        5.904181   0.000000
   15        5.969438   0.000000
   16        6.122305   0.000000
   17        6.600522   0.000000
   18        6.605580   0.000000
