       N       E                     dE             d eps       ncg     rms          rms(c)
DAV:   1     0.287796508441E+02    0.28780E+02   -0.19246E+03    36   0.203E+02
DAV:   2    -0.151767378317E+02   -0.43956E+02   -0.43956E+02    54   0.500E+01
DAV:   3    -0.163205118992E+02   -0.11438E+01   -0.11438E+01    36   0.123E+01
DAV:   4    -0.163246739307E+02   -0.41620E-02   -0.41620E-02    72   0.809E-01
DAV:   5    -0.163246739602E+02   -0.29482E-07   -0.29482E-07    36   0.235E-03    0.787E+00
DAV:   6    -0.143798627291E+02    0.19448E+01   -0.94541E+00    36   0.968E+00    0.302E+00
DAV:   7    -0.142654394545E+02    0.11442E+00   -0.66809E-02    72   0.987E-01    0.188E+00
DAV:   8    -0.141871020265E+02    0.78337E-01   -0.77766E-02    36   0.120E+00    0.252E-01
DAV:   9    -0.141976512731E+02   -0.10549E-01   -0.72490E-03    36   0.253E-01    0.182E-01
DAV:  10    -0.142024508116E+02   -0.47995E-02   -0.25476E-03    72   0.212E-01    0.431E-02
DAV:  11    -0.142060817558E+02   -0.36309E-02   -0.11067E-03    72   0.810E-02    0.298E-02
DAV:  12    -0.142068964732E+02   -0.81472E-03   -0.36308E-04    54   0.515E-02    0.903E-03
DAV:  13    -0.142071746860E+02   -0.27821E-03   -0.55657E-05    72   0.196E-02    0.302E-03
DAV:  14    -0.142072059901E+02   -0.31304E-04   -0.30036E-06    72   0.466E-03
    1 T=  2134. E= -.13655478E+02 F= -.14207206E+02 E0= -.14207206E+02  EK= 0.55173E+00 SP= 0.00E+00 SK= 0.00E+00
       N       E                     dE             d eps       ncg     rms          rms(c)
DAV:   1    -0.141623538229E+02    0.44821E-01   -0.43939E+00    36   0.882E+00    0.947E-01
DAV:   2    -0.141526676363E+02    0.96862E-02   -0.11942E-01    72   0.128E+00    0.420E-01
DAV:   3    -0.141522768631E+02    0.39077E-03   -0.16259E-03    54   0.194E-01    0.220E-01
DAV:   4    -0.141525409518E+02   -0.26409E-03   -0.10566E-03    72   0.160E-01    0.282E-02
DAV:   5    -0.141527144398E+02   -0.17349E-03   -0.12202E-04    54   0.483E-02    0.109E-02
DAV:   6    -0.141528140114E+02   -0.99572E-04   -0.18335E-05    54   0.143E-02
    2 T=  1971. E= -.13643240E+02 F= -.14152814E+02 E0= -.14152814E+02  EK= 0.50957E+00 SP= 0.00E+00 SK= 0.00E+00
       N       E                     dE             d eps       ncg     rms          rms(c)
DAV:   1    -0.139741853767E+02    0.17853E+00   -0.66439E-01    36   0.359E+00    0.272E-01
DAV:   2    -0.139746724884E+02   -0.48711E-03   -0.17361E-02    72   0.591E-01    0.119E-01
DAV:   3    -0.139746378072E+02    0.34681E-04   -0.33745E-04    54   0.690E-02
    3 T=  1335. E= -.13629582E+02 F= -.13974638E+02 E0= -.13974638E+02  EK= 0.34506E+00 SP= 0.00E+00 SK= 0.00E+00
       N       E                     dE             d eps       ncg     rms          rms(c)
DAV:   1    -0.138854101256E+02    0.89262E-01   -0.62892E-01    36   0.357E+00    0.228E-01
DAV:   2    -0.138857619913E+02   -0.35187E-03   -0.78114E-03    72   0.404E-01    0.142E-01
DAV:   3    -0.138857997150E+02   -0.37724E-04   -0.89015E-04    54   0.141E-01
    4 T=  1010. E= -.13624769E+02 F= -.13885800E+02 E0= -.13885800E+02  EK= 0.26103E+00 SP= 0.00E+00 SK= 0.00E+00
       N       E                     dE             d eps       ncg     rms          rms(c)
DAV:   1    -0.139675902351E+02   -0.81828E-01   -0.30207E-01    54   0.196E+00    0.150E-01
DAV:   2    -0.139680804305E+02   -0.49020E-03   -0.29940E-03    72   0.247E-01    0.896E-02
DAV:   3    -0.139683562489E+02   -0.27582E-03   -0.69420E-05    72   0.358E-02    0.293E-02
DAV:   4    -0.139684606323E+02   -0.10438E-03   -0.20202E-05    72   0.186E-02    0.410E-03
DAV:   5    -0.139685097351E+02   -0.49103E-04   -0.44982E-06    72   0.605E-03
    5 T=  1308. E= -.13630332E+02 F= -.13968510E+02 E0= -.13968510E+02  EK= 0.33818E+00 SP= 0.00E+00 SK= 0.00E+00
       N       E                     dE             d eps       ncg     rms          rms(c)
DAV:   1    -0.141299084034E+02   -0.16145E+00   -0.56738E-01    54   0.242E+00    0.825E-02
DAV:   2    -0.141307987713E+02   -0.89037E-03   -0.84382E-03    72   0.402E-01    0.680E-02
DAV:   3    -0.141308740695E+02   -0.75298E-04   -0.82777E-05    54   0.353E-02
    6 T=  1872. E= -.13646797E+02 F= -.14130874E+02 E0= -.14130874E+02  EK= 0.48408E+00 SP= 0.00E+00 SK= 0.00E+00
       N       E                     dE             d eps       ncg     rms          rms(c)
DAV:   1    -0.141363935727E+02   -0.55948E-02   -0.90073E-01    72   0.330E+00    0.209E-01
DAV:   2    -0.141366095506E+02   -0.21598E-03   -0.46754E-03    54   0.330E-01    0.109E-01
DAV:   3    -0.141367583378E+02   -0.14879E-03   -0.97846E-05    72   0.476E-02    0.491E-02
DAV:   4    -0.141368689970E+02   -0.11066E-03   -0.39547E-05    72   0.312E-02    0.687E-03
DAV:   5    -0.141368977520E+02   -0.28755E-04   -0.55975E-06    72   0.966E-03
    7 T=  1871. E= -.13653259E+02 F= -.14136898E+02 E0= -.14136898E+02  EK= 0.48364E+00 SP= 0.00E+00 SK= 0.00E+00
       N       E                     dE             d eps       ncg     rms          rms(c)
DAV:   1    -0.139647310000E+02    0.17214E+00   -0.83169E-01    36   0.396E+00    0.264E-01
DAV:   2    -0.139663333784E+02   -0.16024E-02   -0.19643E-02    72   0.619E-01    0.170E-01
DAV:   3    -0.139663305780E+02    0.28004E-05   -0.36904E-04    72   0.789E-02
    8 T=  1346. E= -.13618422E+02 F= -.13966331E+02 E0= -.13966331E+02  EK= 0.34791E+00 SP= 0.00E+00 SK= 0.00E+00
       N       E                     dE             d eps       ncg     rms          rms(c)
DAV:   1    -0.140453096917E+02   -0.78976E-01   -0.15607E+00    36   0.615E+00    0.601E-01
DAV:   2    -0.140430644695E+02    0.22452E-02   -0.42878E-02    72   0.830E-01    0.257E-01
DAV:   3    -0.140431067499E+02   -0.42280E-04   -0.74634E-04    72   0.128E-01
    9 T=  1580. E= -.13634626E+02 F= -.14043107E+02 E0= -.14043107E+02  EK= 0.40848E+00 SP= 0.00E+00 SK= 0.00E+00
       N       E                     dE             d eps       ncg     rms          rms(c)
DAV:   1    -0.141951771039E+02   -0.15211E+00   -0.76324E-01    72   0.365E+00    0.324E-01
DAV:   2    -0.141957277078E+02   -0.55060E-03   -0.60408E-03    36   0.376E-01    0.191E-01
DAV:   3    -0.141961091400E+02   -0.38143E-03   -0.73375E-04    72   0.139E-01    0.250E-02
DAV:   4    -0.141961406327E+02   -0.31493E-04   -0.70754E-05    36   0.382E-02
   10 T=  2101. E= -.13653004E+02 F= -.14196141E+02 E0= -.14196141E+02  EK= 0.54314E+00 SP= 0.00E+00 SK= 0.00E+00
       N       E                     dE             d eps       ncg     rms          rms(c)
DAV:   1    -0.141328312615E+02    0.63278E-01   -0.91289E-01    36   0.375E+00    0.289E-01
DAV:   2    -0.141335993073E+02   -0.76805E-03   -0.14702E-02    72   0.577E-01    0.155E-01
DAV:   3    -0.141335705412E+02    0.28766E-04   -0.52070E-04    54   0.961E-02
   11 T=  1898. E= -.13642848E+02 F= -.14133571E+02 E0= -.14133571E+02  EK= 0.49072E+00 SP= 0.00E+00 SK= 0.00E+00
       N       E                     dE             d eps       ncg     rms          rms(c)
DAV:   1    -0.139729983841E+02    0.16060E+00   -0.51669E-01    72   0.249E+00    0.216E-01
DAV:   2    -0.139727433312E+02    0.25505E-03   -0.77332E-03    72   0.358E-01    0.754E-02
DAV:   3    -0.139727690566E+02   -0.25725E-04   -0.13636E-04    72   0.447E-02
   12 T=  1322. E= -.13631109E+02 F= -.13972769E+02 E0= -.13972769E+02  EK= 0.34166E+00 SP= 0.00E+00 SK= 0.00E+00
       N       E                     dE             d eps       ncg     rms          rms(c)
DAV:   1    -0.138997056997E+02    0.73038E-01   -0.53652E-01    72   0.307E+00    0.212E-01
DAV:   2    -0.138998710778E+02   -0.16538E-03   -0.13571E-03    36   0.172E-01    0.126E-01
DAV:   3    -0.139001051492E+02   -0.23407E-03   -0.25195E-04    72   0.785E-02    0.216E-02
DAV:   4    -0.139001836328E+02   -0.78484E-04   -0.22699E-05    54   0.207E-02
   13 T=  1058. E= -.13626667E+02 F= -.13900184E+02 E0= -.13900184E+02  EK= 0.27352E+00 SP= 0.00E+00 SK= 0.00E+00
       N       E                     dE             d eps       ncg     rms          rms(c)
DAV:   1    -0.139890797236E+02   -0.88975E-01   -0.31194E-01    72   0.224E+00    0.105E-01
DAV:   2    -0.139894317062E+02   -0.35198E-03   -0.22460E-03    36   0.230E-01    0.629E-02
DAV:   3    -0.139896182855E+02   -0.18658E-03   -0.99617E-05    54   0.466E-02    0.164E-02
DAV:   4    -0.139896943779E+02   -0.76092E-04   -0.15622E-05    54   0.169E-02
   14 T=  1383. E= -.13632095E+02 F= -.13989694E+02 E0= -.13989694E+02  EK= 0.35760E+00 SP= 0.00E+00 SK= 0.00E+00
       N       E                     dE             d eps       ncg     rms          rms(c)
DAV:   1    -0.141515897212E+02   -0.16197E+00   -0.47270E-01    72   0.260E+00    0.969E-02
DAV:   2    -0.141519535806E+02   -0.36386E-03   -0.35757E-03    36   0.292E-01    0.611E-02
DAV:   3    -0.141520451098E+02   -0.91529E-04   -0.73039E-05    72   0.397E-02
   15 T=  1950. E= -.13647874E+02 F= -.14152045E+02 E0= -.14152045E+02  EK= 0.50417E+00 SP= 0.00E+00 SK= 0.00E+00
       N       E                     dE             d eps       ncg     rms          rms(c)
DAV:   1    -0.141574468195E+02   -0.54932E-02   -0.74332E-01    36   0.340E+00    0.128E-01
DAV:   2    -0.141596274207E+02   -0.21806E-02   -0.22528E-02    72   0.630E-01    0.129E-01
DAV:   3    -0.141595689860E+02    0.58435E-04   -0.15538E-04    36   0.434E-02
   16 T=  1952. E= -.13655043E+02 F= -.14159569E+02 E0= -.14159569E+02  EK= 0.50453E+00 SP= 0.00E+00 SK= 0.00E+00
       N       E                     dE             d eps       ncg     rms          rms(c)
DAV:   1    -0.139586321046E+02    0.20100E+00   -0.76762E-01    36   0.403E+00    0.259E-01
DAV:   2    -0.139602618388E+02   -0.16297E-02   -0.16809E-02    36   0.551E-01    0.184E-01
DAV:   3    -0.139604945275E+02   -0.23269E-03   -0.12347E-03    72   0.144E-01    0.502E-02
DAV:   4    -0.139604986843E+02   -0.41567E-05   -0.14178E-04    72   0.403E-02
   17 T=  1311. E= -.13621652E+02 F= -.13960499E+02 E0= -.13960499E+02  EK= 0.33885E+00 SP= 0.00E+00 SK= 0.00E+00
       N       E                     dE             d eps       ncg     rms          rms(c)
DAV:   1    -0.139861779881E+02   -0.25683E-01   -0.18628E+00    36   0.704E+00    0.854E-01
DAV:   2    -0.139810313802E+02    0.51466E-02   -0.51784E-02    72   0.860E-01    0.401E-01
DAV:   3    -0.139815308107E+02   -0.49943E-03   -0.13555E-03    72   0.180E-01    0.188E-01
DAV:   4    -0.139821291112E+02   -0.59830E-03   -0.66204E-04    72   0.130E-01    0.245E-02
DAV:   5    -0.139822028940E+02   -0.73783E-04   -0.59537E-05    72   0.358E-02
   18 T=  1373. E= -.13627174E+02 F= -.13982203E+02 E0= -.13982203E+02  EK= 0.35503E+00 SP= 0.00E+00 SK= 0.00E+00
       N       E                     dE             d eps       ncg     rms          rms(c)
DAV:   1    -0.141708933445E+02   -0.18876E+00   -0.61537E-01    54   0.308E+00    0.250E-01
DAV:   2    -0.141717869236E+02   -0.89358E-03   -0.11479E-02    72   0.509E-01    0.144E-01
DAV:   3    -0.141719315609E+02   -0.14464E-03   -0.42343E-04    54   0.960E-02    0.425E-02
DAV:   4    -0.141720109016E+02   -0.79341E-04   -0.60783E-05    72   0.358E-02
   19 T=  2007. E= -.13653263E+02 F= -.14172011E+02 E0= -.14172011E+02  EK= 0.51875E+00 SP= 0.00E+00 SK= 0.00E+00
       N       E                     dE             d eps       ncg     rms          rms(c)
DAV:   1    -0.141585817817E+02    0.13350E-01   -0.80067E-01    72   0.335E+00    0.276E-01
DAV:   2    -0.141583018328E+02    0.27995E-03   -0.63847E-03    72   0.389E-01    0.137E-01
DAV:   3    -0.141583026446E+02   -0.81179E-06   -0.20729E-04    72   0.675E-02
   20 T=  1981. E= -.13646100E+02 F= -.14158303E+02 E0= -.14158303E+02  EK= 0.51220E+00 SP= 0.00E+00 SK= 0.00E+00
       N       E                     dE             d eps       ncg     rms          rms(c)
DAV:   1    -0.140059667772E+02    0.15234E+00   -0.61902E-01    36   0.315E+00    0.288E-01
DAV:   2    -0.140059442411E+02    0.22536E-04   -0.15815E-02    72   0.553E-01    0.104E-01
DAV:   3    -0.140059640919E+02   -0.19851E-04   -0.19783E-04    72   0.539E-02
   21 T=  1444. E= -.13632758E+02 F= -.14005964E+02 E0= -.14005964E+02  EK= 0.37321E+00 SP= 0.00E+00 SK= 0.00E+00
       N       E                     dE             d eps       ncg     rms          rms(c)
DAV:   1    -0.139215760910E+02    0.84368E-01   -0.57840E-01    54   0.322E+00    0.216E-01
DAV:   2    -0.139216075763E+02   -0.31485E-04   -0.31623E-03    72   0.237E-01    0.119E-01
DAV:   3    -0.139216898773E+02   -0.82301E-04   -0.13787E-04    72   0.609E-02
   22 T=  1139. E= -.13627148E+02 F= -.13921690E+02 E0= -.13921690E+02  EK= 0.29454E+00 SP= 0.00E+00 SK= 0.00E+00
       N       E                     dE             d eps       ncg     rms          rms(c)
DAV:   1    -0.139994539106E+02   -0.77846E-01   -0.25169E-01    72   0.206E+00    0.124E-01
DAV:   2    -0.139997870904E+02   -0.33318E-03   -0.26740E-03    36   0.255E-01    0.679E-02
DAV:   3    -0.139999320479E+02   -0.14496E-03   -0.39177E-05    54   0.251E-02    0.348E-02
DAV:   4    -0.140000792008E+02   -0.14715E-03   -0.27229E-05    54   0.228E-02    0.384E-03
DAV:   5    -0.140001353932E+02   -0.56192E-04   -0.60937E-06    54   0.696E-03
   23 T=  1423. E= -.13632147E+02 F= -.14000135E+02 E0= -.14000135E+02  EK= 0.36799E+00 SP= 0.00E+00 SK= 0.00E+00
       N       E                     dE             d eps       ncg     rms          rms(c)
DAV:   1    -0.141583037106E+02   -0.15822E+00   -0.38410E-01    36   0.224E+00    0.588E-02
DAV:   2    -0.141593917923E+02   -0.10881E-02   -0.10657E-02    72   0.480E-01    0.696E-02
DAV:   3    -0.141593842170E+02    0.75753E-05   -0.14884E-05    36   0.143E-02
   24 T=  1978. E= -.13647915E+02 F= -.14159384E+02 E0= -.14159384E+02  EK= 0.51147E+00 SP= 0.00E+00 SK= 0.00E+00
       N       E                     dE             d eps       ncg     rms          rms(c)
DAV:   1    -0.141648118377E+02   -0.54200E-02   -0.66366E-01    72   0.293E+00    0.190E-01
DAV:   2    -0.141650227146E+02   -0.21088E-03   -0.55307E-03    54   0.345E-01    0.106E-01
DAV:   3    -0.141650995945E+02   -0.76880E-04   -0.12378E-04    72   0.532E-02
   25 T=  1972. E= -.13655185E+02 F= -.14165100E+02 E0= -.14165100E+02  EK= 0.50991E+00 SP= 0.00E+00 SK= 0.00E+00
       N       E                     dE             d eps       ncg     rms          rms(c)
DAV:   1    -0.139705561308E+02    0.19447E+00   -0.58570E-01    36   0.328E+00    0.209E-01
DAV:   2    -0.139720779789E+02   -0.15218E-02   -0.16983E-02    72   0.560E-01    0.143E-01
DAV:   3    -0.139720631034E+02    0.14876E-04   -0.29898E-04    72   0.717E-02
   26 T=  1353. E= -.13622247E+02 F= -.13972063E+02 E0= -.13972063E+02  EK= 0.34982E+00 SP= 0.00E+00 SK= 0.00E+00
       N       E                     dE             d eps       ncg     rms          rms(c)
DAV:   1    -0.140004767300E+02   -0.28399E-01   -0.90527E-01    36   0.455E+00    0.564E-01
DAV:   2    -0.139973529103E+02    0.31238E-02   -0.40791E-02    72   0.798E-01    0.202E-01
DAV:   3    -0.139973054261E+02    0.47484E-04   -0.46252E-04    36   0.105E-01
   27 T=  1416. E= -.13631269E+02 F= -.13997305E+02 E0= -.13997305E+02  EK= 0.36604E+00 SP= 0.00E+00 SK= 0.00E+00
       N       E                     dE             d eps       ncg     rms          rms(c)
DAV:   1    -0.141485566808E+02   -0.15120E+00   -0.69185E-01    72   0.320E+00    0.295E-01
DAV:   2    -0.141488107485E+02   -0.25407E-03   -0.63562E-03    36   0.405E-01    0.168E-01
DAV:   3    -0.141491283927E+02   -0.31764E-03   -0.70970E-04    72   0.134E-01    0.281E-02
DAV:   4    -0.141492452703E+02   -0.11688E-03   -0.44763E-05    72   0.303E-02    0.116E-02
DAV:   5    -0.141493401278E+02   -0.94857E-04   -0.14830E-05    72   0.144E-02
   28 T=  1923. E= -.13652080E+02 F= -.14149340E+02 E0= -.14149340E+02  EK= 0.49726E+00 SP= 0.00E+00 SK= 0.00E+00
       N       E                     dE             d eps       ncg     rms          rms(c)
DAV:   1    -0.141135832016E+02    0.35662E-01   -0.86494E-01    72   0.334E+00    0.280E-01
DAV:   2    -0.141132362206E+02    0.34698E-03   -0.56526E-03    36   0.367E-01    0.145E-01
DAV:   3    -0.141132090943E+02    0.27126E-04   -0.56238E-04    72   0.113E-01
   29 T=  1813. E= -.13644528E+02 F= -.14113209E+02 E0= -.14113209E+02  EK= 0.46868E+00 SP= 0.00E+00 SK= 0.00E+00
       N       E                     dE             d eps       ncg     rms          rms(c)
DAV:   1    -0.139628980976E+02    0.15034E+00   -0.55159E-01    54   0.238E+00    0.221E-01
DAV:   2    -0.139627394608E+02    0.15864E-03   -0.90755E-03    54   0.396E-01    0.704E-02
DAV:   3    -0.139627909030E+02   -0.51442E-04   -0.17388E-04    54   0.497E-02
   30 T=  1282. E= -.13631292E+02 F= -.13962791E+02 E0= -.13962791E+02  EK= 0.33150E+00 SP= 0.00E+00 SK= 0.00E+00
       N       E                     dE             d eps       ncg     rms          rms(c)
DAV:   1    -0.138947177677E+02    0.68022E-01   -0.50421E-01    36   0.282E+00    0.203E-01
DAV:   2    -0.138951703702E+02   -0.45260E-03   -0.50223E-03    72   0.296E-01    0.124E-01
DAV:   3    -0.138952613009E+02   -0.90931E-04   -0.48716E-04    54   0.845E-02
   31 T=  1040. E= -.13626352E+02 F= -.13895261E+02 E0= -.13895261E+02  EK= 0.26891E+00 SP= 0.00E+00 SK= 0.00E+00
       N       E                     dE             d eps       ncg     rms          rms(c)
DAV:   1    -0.139948555707E+02   -0.99685E-01   -0.27742E-01    72   0.229E+00    0.120E-01
DAV:   2    -0.139953881473E+02   -0.53258E-03   -0.33005E-03    36   0.271E-01    0.736E-02
DAV:   3    -0.139956449088E+02   -0.25676E-03   -0.73221E-05    72   0.395E-02    0.157E-02
DAV:   4    -0.139957442547E+02   -0.99346E-04   -0.91753E-06    54   0.124E-02
   32 T=  1407. E= -.13632099E+02 F= -.13995744E+02 E0= -.13995744E+02  EK= 0.36365E+00 SP= 0.00E+00 SK= 0.00E+00
       N       E                     dE             d eps       ncg     rms          rms(c)
DAV:   1    -0.141697978978E+02   -0.17415E+00   -0.42280E-01    72   0.268E+00    0.781E-02
DAV:   2    -0.141701882139E+02   -0.39032E-03   -0.30921E-03    36   0.272E-01    0.542E-02
DAV:   3    -0.141703059605E+02   -0.11775E-03   -0.11203E-04    72   0.491E-02    0.109E-02
DAV:   4    -0.141703238535E+02   -0.17893E-04   -0.92417E-06    54   0.114E-02
   33 T=  2020. E= -.13648157E+02 F= -.14170324E+02 E0= -.14170324E+02  EK= 0.52217E+00 SP= 0.00E+00 SK= 0.00E+00
       N       E                     dE             d eps       ncg     rms          rms(c)
DAV:   1    -0.141890856019E+02   -0.18780E-01   -0.69323E-01    72   0.347E+00    0.155E-01
DAV:   2    -0.141893657728E+02   -0.28017E-03   -0.47130E-03    36   0.330E-01    0.869E-02
DAV:   3    -0.141894382439E+02   -0.72471E-04   -0.11840E-04    72   0.520E-02
   34 T=  2071. E= -.13653963E+02 F= -.14189438E+02 E0= -.14189438E+02  EK= 0.53547E+00 SP= 0.00E+00 SK= 0.00E+00
       N       E                     dE             d eps       ncg     rms          rms(c)
DAV:   1    -0.140118203574E+02    0.17755E+00   -0.85235E-01    36   0.457E+00    0.283E-01
DAV:   2    -0.140135861839E+02   -0.17658E-02   -0.19473E-02    72   0.630E-01    0.194E-01
DAV:   3    -0.140136645973E+02   -0.78413E-04   -0.58797E-04    54   0.105E-01
   35 T=  1498. E= -.13626488E+02 F= -.14013665E+02 E0= -.14013665E+02  EK= 0.38718E+00 SP= 0.00E+00 SK= 0.00E+00
       N       E                     dE             d eps       ncg     rms          rms(c)
DAV:   1    -0.140026851319E+02    0.10901E-01   -0.15116E+00    36   0.614E+00    0.623E-01
DAV:   2    -0.139996794500E+02    0.30057E-02   -0.34139E-02    72   0.753E-01    0.268E-01
DAV:   3    -0.139997504644E+02   -0.71014E-04   -0.81242E-04    36   0.143E-01
   36 T=  1433. E= -.13629219E+02 F= -.13999750E+02 E0= -.13999750E+02  EK= 0.37053E+00 SP= 0.00E+00 SK= 0.00E+00
       N       E                     dE             d eps       ncg     rms          rms(c)
DAV:   1    -0.141295400416E+02   -0.12986E+00   -0.70799E-01    72   0.329E+00    0.318E-01
DAV:   2    -0.141297616861E+02   -0.22164E-03   -0.34717E-03    36   0.299E-01    0.181E-01
DAV:   3    -0.141301978433E+02   -0.43616E-03   -0.52101E-04    72   0.114E-01    0.262E-02
DAV:   4    -0.141302805443E+02   -0.82701E-04   -0.41387E-05    72   0.275E-02
   37 T=  1855. E= -.13650823E+02 F= -.14130281E+02 E0= -.14130281E+02  EK= 0.47946E+00 SP= 0.00E+00 SK= 0.00E+00
       N       E                     dE             d eps       ncg     rms          rms(c)
DAV:   1    -0.141062057113E+02    0.23992E-01   -0.77551E-01    72   0.310E+00    0.267E-01
DAV:   2    -0.141057800559E+02    0.42566E-03   -0.72929E-03    36   0.372E-01    0.114E-01
DAV:   3    -0.141057708602E+02    0.91957E-05   -0.20381E-04    72   0.677E-02
   38 T=  1777. E= -.13646411E+02 F= -.14105771E+02 E0= -.14105771E+02  EK= 0.45936E+00 SP= 0.00E+00 SK= 0.00E+00
       N       E                     dE             d eps       ncg     rms          rms(c)
DAV:   1    -0.139600082277E+02    0.14577E+00   -0.52152E-01    72   0.250E+00    0.218E-01
DAV:   2    -0.139595047713E+02    0.50346E-03   -0.73408E-03    54   0.327E-01    0.640E-02
DAV:   3    -0.139595015312E+02    0.32401E-05   -0.12682E-04    54   0.428E-02
   39 T=  1262. E= -.13633336E+02 F= -.13959502E+02 E0= -.13959502E+02  EK= 0.32617E+00 SP= 0.00E+00 SK= 0.00E+00
       N       E                     dE             d eps       ncg     rms          rms(c)
DAV:   1    -0.138845951270E+02    0.74910E-01   -0.40313E-01    72   0.254E+00    0.169E-01
DAV:   2    -0.138846748162E+02   -0.79689E-04   -0.95039E-04    36   0.149E-01
   40 T=   995. E= -.13627558E+02 F= -.13884675E+02 E0= -.13884675E+02  EK= 0.25712E+00 SP= 0.00E+00 SK= 0.00E+00
       N       E                     dE             d eps       ncg     rms          rms(c)
DAV:   1    -0.139731388997E+02   -0.88544E-01   -0.17162E-01    72   0.193E+00    0.134E-01
DAV:   2    -0.139734259639E+02   -0.28706E-03   -0.23852E-03    36   0.238E-01    0.744E-02
DAV:   3    -0.139735564094E+02   -0.13045E-03   -0.40524E-05    72   0.302E-02    0.275E-02
DAV:   4    -0.139736193206E+02   -0.62911E-04   -0.14234E-05    72   0.159E-02
   41 T=  1318. E= -.13632891E+02 F= -.13973619E+02 E0= -.13973619E+02  EK= 0.34073E+00 SP= 0.00E+00 SK= 0.00E+00
       N       E                     dE             d eps       ncg     rms          rms(c)
DAV:   1    -0.141425032248E+02   -0.16895E+00   -0.26683E-01    72   0.205E+00    0.730E-02
DAV:   2    -0.141428295980E+02   -0.32637E-03   -0.33036E-03    36   0.283E-01    0.412E-02
DAV:   3    -0.141428989311E+02   -0.69333E-04   -0.36826E-05    72   0.297E-02
   42 T=  1913. E= -.13648267E+02 F= -.14142899E+02 E0= -.14142899E+02  EK= 0.49463E+00 SP= 0.00E+00 SK= 0.00E+00
       N       E                     dE             d eps       ncg     rms          rms(c)
DAV:   1    -0.141721928363E+02   -0.29363E-01   -0.50398E-01    72   0.267E+00    0.133E-01
DAV:   2    -0.141724926390E+02   -0.29980E-03   -0.52967E-03    36   0.352E-01    0.740E-02
DAV:   3    -0.141725230203E+02   -0.30381E-04   -0.10248E-04    72   0.478E-02
   43 T=  2002. E= -.13654928E+02 F= -.14172523E+02 E0= -.14172523E+02  EK= 0.51760E+00 SP= 0.00E+00 SK= 0.00E+00
       N       E                     dE             d eps       ncg     rms          rms(c)
DAV:   1    -0.140199264662E+02    0.15257E+00   -0.45017E-01    72   0.282E+00    0.207E-01
DAV:   2    -0.140200472922E+02   -0.12083E-03   -0.38893E-03    36   0.299E-01    0.127E-01
DAV:   3    -0.140200936960E+02   -0.46404E-04   -0.18082E-04    72   0.703E-02
   44 T=  1517. E= -.13627969E+02 F= -.14020094E+02 E0= -.14020094E+02  EK= 0.39212E+00 SP= 0.00E+00 SK= 0.00E+00
       N       E                     dE             d eps       ncg     rms          rms(c)
DAV:   1    -0.140368106207E+02   -0.16763E-01   -0.60805E-01    72   0.354E+00    0.472E-01
DAV:   2    -0.140337845413E+02    0.30261E-02   -0.21770E-02    36   0.544E-01    0.169E-01
DAV:   3    -0.140337524861E+02    0.32055E-04   -0.30386E-04    72   0.863E-02
   45 T=  1553. E= -.13632237E+02 F= -.14033752E+02 E0= -.14033752E+02  EK= 0.40152E+00 SP= 0.00E+00 SK= 0.00E+00
       N       E                     dE             d eps       ncg     rms          rms(c)
DAV:   1    -0.141690957588E+02   -0.13531E+00   -0.63666E-01    54   0.299E+00    0.269E-01
DAV:   2    -0.141693114494E+02   -0.21569E-03   -0.69873E-03    36   0.421E-01    0.154E-01
DAV:   3    -0.141693548597E+02   -0.43410E-04   -0.67812E-04    72   0.128E-01
   46 T=  1998. E= -.13652942E+02 F= -.14169355E+02 E0= -.14169355E+02  EK= 0.51641E+00 SP= 0.00E+00 SK= 0.00E+00
       N       E                     dE             d eps       ncg     rms          rms(c)
DAV:   1    -0.141313213756E+02    0.37990E-01   -0.75772E-01    72   0.310E+00    0.248E-01
DAV:   2    -0.141311735006E+02    0.14787E-03   -0.56278E-03    36   0.353E-01    0.127E-01
DAV:   3    -0.141312170133E+02   -0.43513E-04   -0.28355E-04    72   0.798E-02
   47 T=  1869. E= -.13648091E+02 F= -.14131217E+02 E0= -.14131217E+02  EK= 0.48313E+00 SP= 0.00E+00 SK= 0.00E+00
       N       E                     dE             d eps       ncg     rms          rms(c)
DAV:   1    -0.139672658383E+02    0.16391E+00   -0.50250E-01    36   0.252E+00    0.208E-01
DAV:   2    -0.139672268457E+02    0.38993E-04   -0.94915E-03    72   0.424E-01    0.700E-02
DAV:   3    -0.139672183371E+02    0.85086E-05   -0.15846E-04    72   0.480E-02
   48 T=  1287. E= -.13634441E+02 F= -.13967218E+02 E0= -.13967218E+02  EK= 0.33278E+00 SP= 0.00E+00 SK= 0.00E+00
       N       E                     dE             d eps       ncg     rms          rms(c)
DAV:   1    -0.138813979164E+02    0.85829E-01   -0.37362E-01    72   0.264E+00    0.184E-01
DAV:   2    -0.138816154727E+02   -0.21756E-03   -0.19347E-03    36   0.213E-01    0.105E-01
DAV:   3    -0.138818452605E+02   -0.22979E-03   -0.18212E-04    72   0.637E-02    0.147E-02
DAV:   4    -0.138819304200E+02   -0.85160E-04   -0.18736E-05    72   0.168E-02
   49 T=   980. E= -.13628660E+02 F= -.13881930E+02 E0= -.13881930E+02  EK= 0.25327E+00 SP= 0.00E+00 SK= 0.00E+00
       N       E                     dE             d eps       ncg     rms          rms(c)
DAV:   1    -0.139680978646E+02   -0.86253E-01   -0.16971E-01    54   0.198E+00    0.991E-02
DAV:   2    -0.139685835300E+02   -0.48567E-03   -0.43953E-03    72   0.309E-01    0.548E-02
DAV:   3    -0.139686701137E+02   -0.86584E-04   -0.11917E-05    72   0.163E-02
   50 T=  1293. E= -.13634476E+02 F= -.13968670E+02 E0= -.13968670E+02  EK= 0.33419E+00 SP= 0.00E+00 SK= 0.00E+00
       N       E                     dE             d eps       ncg     rms          rms(c)
DAV:   1    -0.141338485078E+02   -0.16526E+00   -0.32023E-01    54   0.222E+00    0.650E-02
DAV:   2    -0.141345197458E+02   -0.67124E-03   -0.56277E-03    72   0.349E-01    0.531E-02
DAV:   3    -0.141346282375E+02   -0.10849E-03   -0.44477E-05    54   0.265E-02    0.256E-02
DAV:   4    -0.141347193533E+02   -0.91116E-04   -0.14293E-05    72   0.151E-02
   51 T=  1876. E= -.13649640E+02 F= -.14134719E+02 E0= -.14134719E+02  EK= 0.48508E+00 SP= 0.00E+00 SK= 0.00E+00
       N       E                     dE             d eps       ncg     rms          rms(c)
DAV:   1    -0.141642991320E+02   -0.29671E-01   -0.58359E-01    72   0.296E+00    0.138E-01
DAV:   2    -0.141646196209E+02   -0.32049E-03   -0.40576E-03    36   0.318E-01    0.808E-02
DAV:   3    -0.141647020160E+02   -0.82395E-04   -0.19228E-04    72   0.673E-02
   52 T=  1976. E= -.13653923E+02 F= -.14164702E+02 E0= -.14164702E+02  EK= 0.51078E+00 SP= 0.00E+00 SK= 0.00E+00
       N       E                     dE             d eps       ncg     rms          rms(c)
DAV:   1    -0.140345099127E+02    0.13011E+00   -0.56111E-01    36   0.332E+00    0.321E-01
DAV:   2    -0.140353955812E+02   -0.88567E-03   -0.24035E-02    72   0.699E-01    0.183E-01
DAV:   3    -0.140353080675E+02    0.87514E-04   -0.33266E-04    36   0.758E-02
   53 T=  1562. E= -.13631445E+02 F= -.14035308E+02 E0= -.14035308E+02  EK= 0.40386E+00 SP= 0.00E+00 SK= 0.00E+00
       N       E                     dE             d eps       ncg     rms          rms(c)
DAV:   1    -0.140473341299E+02   -0.11939E-01   -0.82554E-01    36   0.420E+00    0.477E-01
DAV:   2    -0.140453971375E+02    0.19370E-02   -0.25679E-02    72   0.649E-01    0.184E-01
DAV:   3    -0.140454224129E+02   -0.25275E-04   -0.49516E-04    72   0.112E-01
   54 T=  1595. E= -.13633189E+02 F= -.14045422E+02 E0= -.14045422E+02  EK= 0.41223E+00 SP= 0.00E+00 SK= 0.00E+00
       N       E                     dE             d eps       ncg     rms          rms(c)
DAV:   1    -0.141783709994E+02   -0.13297E+00   -0.76364E-01    72   0.340E+00    0.308E-01
DAV:   2    -0.141783477572E+02    0.23242E-04   -0.33460E-03    36   0.291E-01    0.177E-01
DAV:   3    -0.141785911842E+02   -0.24343E-03   -0.72194E-04    54   0.138E-01    0.218E-02
DAV:   4    -0.141786614894E+02   -0.70305E-04   -0.82160E-05    72   0.374E-02
   55 T=  2025. E= -.13655046E+02 F= -.14178661E+02 E0= -.14178661E+02  EK= 0.52362E+00 SP= 0.00E+00 SK= 0.00E+00
       N       E                     dE             d eps       ncg     rms          rms(c)
DAV:   1    -0.141440818673E+02    0.34509E-01   -0.72830E-01    72   0.301E+00    0.230E-01
DAV:   2    -0.141438030726E+02    0.27879E-03   -0.60648E-03    36   0.338E-01    0.973E-02
DAV:   3    -0.141438319905E+02   -0.28918E-04   -0.16795E-04    72   0.601E-02
   56 T=  1911. E= -.13649894E+02 F= -.14143832E+02 E0= -.14143832E+02  EK= 0.49394E+00 SP= 0.00E+00 SK= 0.00E+00
       N       E                     dE             d eps       ncg     rms          rms(c)
DAV:   1    -0.139799482007E+02    0.16385E+00   -0.46135E-01    36   0.250E+00    0.205E-01
DAV:   2    -0.139800892961E+02   -0.14110E-03   -0.11187E-02    72   0.470E-01    0.716E-02
DAV:   3    -0.139800984795E+02   -0.91834E-05   -0.17038E-04    36   0.463E-02
   57 T=  1332. E= -.13635822E+02 F= -.13980098E+02 E0= -.13980098E+02  EK= 0.34428E+00 SP= 0.00E+00 SK= 0.00E+00
       N       E                     dE             d eps       ncg     rms          rms(c)
DAV:   1    -0.138929833342E+02    0.87106E-01   -0.34628E-01    36   0.253E+00    0.161E-01
DAV:   2    -0.138935103201E+02   -0.52699E-03   -0.56712E-03    72   0.326E-01    0.967E-02
DAV:   3    -0.138935755737E+02   -0.65254E-04   -0.11239E-04    36   0.445E-02
   58 T=  1018. E= -.13630500E+02 F= -.13893576E+02 E0= -.13893576E+02  EK= 0.26308E+00 SP= 0.00E+00 SK= 0.00E+00
       N       E                     dE             d eps       ncg     rms          rms(c)
DAV:   1    -0.139711846152E+02   -0.77674E-01   -0.16866E-01    72   0.185E+00    0.108E-01
DAV:   2    -0.139715166582E+02   -0.33204E-03   -0.29894E-03    36   0.260E-01    0.558E-02
DAV:   3    -0.139716641171E+02   -0.14746E-03   -0.40823E-05    72   0.263E-02    0.293E-02
DAV:   4    -0.139718493065E+02   -0.18519E-03   -0.29582E-05    54   0.208E-02    0.505E-03
DAV:   5    -0.139719621519E+02   -0.11285E-03   -0.14439E-05    36   0.106E-02    0.391E-03
DAV:   6    -0.139720129977E+02   -0.50846E-04   -0.54800E-06    72   0.592E-03
   59 T=  1298. E= -.13636408E+02 F= -.13972013E+02 E0= -.13972013E+02  EK= 0.33561E+00 SP= 0.00E+00 SK= 0.00E+00
       N       E                     dE             d eps       ncg     rms          rms(c)
DAV:   1    -0.141218613825E+02   -0.14990E+00   -0.32620E-01    72   0.203E+00    0.747E-02
DAV:   2    -0.141221373212E+02   -0.27594E-03   -0.30067E-03    72   0.255E-01    0.404E-02
DAV:   3    -0.141221913942E+02   -0.54073E-04   -0.17225E-05    36   0.194E-02
   60 T=  1823. E= -.13650885E+02 F= -.14122191E+02 E0= -.14122191E+02  EK= 0.47131E+00 SP= 0.00E+00 SK= 0.00E+00
       N       E                     dE             d eps       ncg     rms          rms(c)
DAV:   1    -0.141353931500E+02   -0.13256E-01   -0.58741E-01    72   0.264E+00    0.133E-01
DAV:   2    -0.141357295905E+02   -0.33644E-03   -0.49283E-03    36   0.333E-01    0.706E-02
DAV:   3    -0.141357941195E+02   -0.64529E-04   -0.74092E-05    72   0.420E-02
   61 T=  1859. E= -.13655247E+02 F= -.14135794E+02 E0= -.14135794E+02  EK= 0.48055E+00 SP= 0.00E+00 SK= 0.00E+00
       N       E                     dE             d eps       ncg     rms          rms(c)
DAV:   1    -0.139921325230E+02    0.14360E+00   -0.50915E-01    72   0.263E+00    0.221E-01
DAV:   2    -0.139920632829E+02    0.69240E-04   -0.34644E-03    54   0.277E-01    0.125E-01
DAV:   3    -0.139920732366E+02   -0.99537E-05   -0.95468E-05    72   0.477E-02
   62 T=  1399. E= -.13630367E+02 F= -.13992073E+02 E0= -.13992073E+02  EK= 0.36171E+00 SP= 0.00E+00 SK= 0.00E+00
       N       E                     dE             d eps       ncg     rms          rms(c)
DAV:   1    -0.140224136455E+02   -0.30350E-01   -0.67628E-01    72   0.369E+00    0.439E-01
DAV:   2    -0.140197480448E+02    0.26656E-02   -0.18381E-02    36   0.486E-01    0.157E-01
DAV:   3    -0.140197691586E+02   -0.21114E-04   -0.25947E-04    72   0.830E-02
   63 T=  1499. E= -.13632140E+02 F= -.14019769E+02 E0= -.14019769E+02  EK= 0.38763E+00 SP= 0.00E+00 SK= 0.00E+00
       N       E                     dE             d eps       ncg     rms          rms(c)
DAV:   1    -0.141900850816E+02   -0.17034E+00   -0.57812E-01    54   0.305E+00    0.254E-01
DAV:   2    -0.141905083554E+02   -0.42327E-03   -0.74683E-03    72   0.422E-01    0.150E-01
DAV:   3    -0.141906545257E+02   -0.14617E-03   -0.59987E-04    72   0.121E-01    0.243E-02
DAV:   4    -0.141907043257E+02   -0.49800E-04   -0.70627E-05    72   0.349E-02
   64 T=  2065. E= -.13656881E+02 F= -.14190704E+02 E0= -.14190704E+02  EK= 0.53382E+00 SP= 0.00E+00 SK= 0.00E+00
       N       E                     dE             d eps       ncg     rms          rms(c)
DAV:   1    -0.141710504333E+02    0.19604E-01   -0.62668E-01    72   0.311E+00    0.225E-01
DAV:   2    -0.141709809018E+02    0.69531E-04   -0.62986E-03    36   0.378E-01    0.105E-01
DAV:   3    -0.141710458935E+02   -0.64992E-04   -0.16494E-04    72   0.603E-02
   65 T=  2009. E= -.13651690E+02 F= -.14171046E+02 E0= -.14171046E+02  EK= 0.51936E+00 SP= 0.00E+00 SK= 0.00E+00
       N       E                     dE             d eps       ncg     rms          rms(c)
DAV:   1    -0.140018145493E+02    0.16917E+00   -0.51233E-01    54   0.315E+00    0.231E-01
DAV:   2    -0.140018266310E+02   -0.12082E-04   -0.10609E-02    54   0.447E-01    0.956E-02
DAV:   3    -0.140018599192E+02   -0.33288E-04   -0.17884E-04    72   0.540E-02
   66 T=  1412. E= -.13636760E+02 F= -.14001860E+02 E0= -.14001860E+02  EK= 0.36510E+00 SP= 0.00E+00 SK= 0.00E+00
       N       E                     dE             d eps       ncg     rms          rms(c)
DAV:   1    -0.139036776459E+02    0.98149E-01   -0.48378E-01    72   0.311E+00    0.214E-01
DAV:   2    -0.139037883883E+02   -0.11074E-03   -0.44195E-03    36   0.306E-01    0.108E-01
DAV:   3    -0.139038747739E+02   -0.86386E-04   -0.12415E-04    54   0.512E-02
   67 T=  1056. E= -.13630854E+02 F= -.13903875E+02 E0= -.13903875E+02  EK= 0.27302E+00 SP= 0.00E+00 SK= 0.00E+00
       N       E                     dE             d eps       ncg     rms          rms(c)
DAV:   1    -0.139724574185E+02   -0.68669E-01   -0.17284E-01    72   0.190E+00    0.111E-01
DAV:   2    -0.139728042954E+02   -0.34688E-03   -0.29701E-03    36   0.265E-01    0.585E-02
DAV:   3    -0.139729467381E+02   -0.14244E-03   -0.41175E-05    72   0.298E-02    0.303E-02
DAV:   4    -0.139730991231E+02   -0.15239E-03   -0.31687E-05    36   0.239E-02    0.440E-03
DAV:   5    -0.139731620313E+02   -0.62908E-04   -0.79010E-06    54   0.817E-03
   68 T=  1302. E= -.13636659E+02 F= -.13973162E+02 E0= -.13973162E+02  EK= 0.33650E+00 SP= 0.00E+00 SK= 0.00E+00
       N       E                     dE             d eps       ncg     rms          rms(c)
DAV:   1    -0.141186399925E+02   -0.14554E+00   -0.39183E-01    54   0.194E+00    0.671E-02
DAV:   2    -0.141191612517E+02   -0.52126E-03   -0.51442E-03    54   0.332E-01    0.488E-02
DAV:   3    -0.141192020944E+02   -0.40843E-04   -0.38325E-05    72   0.242E-02
   69 T=  1810. E= -.13651249E+02 F= -.14119202E+02 E0= -.14119202E+02  EK= 0.46795E+00 SP= 0.00E+00 SK= 0.00E+00
       N       E                     dE             d eps       ncg     rms          rms(c)
DAV:   1    -0.141341138748E+02   -0.14953E-01   -0.71552E-01    72   0.264E+00    0.159E-01
DAV:   2    -0.141344433514E+02   -0.32948E-03   -0.38013E-03    36   0.310E-01    0.957E-02
DAV:   3    -0.141345766031E+02   -0.13325E-03   -0.18509E-04    72   0.673E-02    0.222E-02
DAV:   4    -0.141346273718E+02   -0.50769E-04   -0.30991E-05    72   0.206E-02
   70 T=  1852. E= -.13655926E+02 F= -.14134627E+02 E0= -.14134627E+02  EK= 0.47870E+00 SP= 0.00E+00 SK= 0.00E+00
       N       E                     dE             d eps       ncg     rms          rms(c)
DAV:   1    -0.139868806669E+02    0.14770E+00   -0.59288E-01    36   0.273E+00    0.279E-01
DAV:   2    -0.139879645641E+02   -0.10839E-02   -0.24347E-02    72   0.691E-01    0.156E-01
DAV:   3    -0.139878910776E+02    0.73486E-04   -0.23429E-04    72   0.621E-02
   71 T=  1367. E= -.13634380E+02 F= -.13987891E+02 E0= -.13987891E+02  EK= 0.35351E+00 SP= 0.00E+00 SK= 0.00E+00
       N       E                     dE             d eps       ncg     rms          rms(c)
DAV:   1    -0.139840183573E+02    0.39462E-02   -0.77853E-01    72   0.396E+00    0.413E-01
DAV:   2    -0.139815587192E+02    0.24596E-02   -0.16799E-02    36   0.500E-01    0.150E-01
DAV:   3    -0.139815194451E+02    0.39274E-04   -0.41065E-04    72   0.104E-01
   72 T=  1357. E= -.13630700E+02 F= -.13981519E+02 E0= -.13981519E+02  EK= 0.35082E+00 SP= 0.00E+00 SK= 0.00E+00
       N       E                     dE             d eps       ncg     rms          rms(c)
DAV:   1    -0.141495433513E+02   -0.16798E+00   -0.74305E-01    72   0.363E+00    0.284E-01
DAV:   2    -0.141496203376E+02   -0.76986E-04   -0.68336E-03    36   0.401E-01    0.171E-01
DAV:   3    -0.141497796954E+02   -0.15936E-03   -0.11321E-03    72   0.168E-01    0.264E-02
DAV:   4    -0.141498549639E+02   -0.75269E-04   -0.13091E-04    54   0.501E-02
   73 T=  1904. E= -.13657705E+02 F= -.14149855E+02 E0= -.14149855E+02  EK= 0.49215E+00 SP= 0.00E+00 SK= 0.00E+00
       N       E                     dE             d eps       ncg     rms          rms(c)
DAV:   1    -0.141438754060E+02    0.59043E-02   -0.61408E-01    54   0.289E+00    0.213E-01
DAV:   2    -0.141439610667E+02   -0.85661E-04   -0.92500E-03    72   0.459E-01    0.874E-02
DAV:   3    -0.141439715011E+02   -0.10434E-04   -0.12633E-04    54   0.514E-02
   74 T=  1901. E= -.13652403E+02 F= -.14143972E+02 E0= -.14143972E+02  EK= 0.49157E+00 SP= 0.00E+00 SK= 0.00E+00
       N       E                     dE             d eps       ncg     rms          rms(c)
DAV:   1    -0.139906942013E+02    0.15327E+00   -0.39884E-01    36   0.256E+00    0.198E-01
DAV:   2    -0.139911127622E+02   -0.41856E-03   -0.11714E-02    54   0.523E-01    0.815E-02
DAV:   3    -0.139911493222E+02   -0.36560E-04   -0.15273E-04    72   0.464E-02
   75 T=  1371. E= -.13636770E+02 F= -.13991149E+02 E0= -.13991149E+02  EK= 0.35438E+00 SP= 0.00E+00 SK= 0.00E+00
       N       E                     dE             d eps       ncg     rms          rms(c)
DAV:   1    -0.139150707011E+02    0.76042E-01   -0.28570E-01    54   0.244E+00    0.160E-01
DAV:   2    -0.139155501757E+02   -0.47947E-03   -0.60617E-03    36   0.352E-01    0.951E-02
DAV:   3    -0.139156459482E+02   -0.95772E-04   -0.10003E-04    72   0.484E-02
   76 T=  1098. E= -.13631716E+02 F= -.13915646E+02 E0= -.13915646E+02  EK= 0.28393E+00 SP= 0.00E+00 SK= 0.00E+00
       N       E                     dE             d eps       ncg     rms          rms(c)
DAV:   1    -0.140026701719E+02   -0.87120E-01   -0.17033E-01    72   0.161E+00    0.955E-02
DAV:   2    -0.140029155378E+02   -0.24537E-03   -0.23103E-03    36   0.229E-01    0.499E-02
DAV:   3    -0.140030345113E+02   -0.11897E-03   -0.34311E-05    72   0.249E-02    0.272E-02
DAV:   4    -0.140031978260E+02   -0.16331E-03   -0.32048E-05    72   0.218E-02    0.502E-03
DAV:   5    -0.140032803859E+02   -0.82560E-04   -0.11298E-05    72   0.966E-03
   77 T=  1413. E= -.13637982E+02 F= -.14003280E+02 E0= -.14003280E+02  EK= 0.36530E+00 SP= 0.00E+00 SK= 0.00E+00
       N       E                     dE             d eps       ncg     rms          rms(c)
DAV:   1    -0.141554431090E+02   -0.15225E+00   -0.43507E-01    72   0.197E+00    0.787E-02
DAV:   2    -0.141556922629E+02   -0.24915E-03   -0.24172E-03    36   0.238E-01    0.404E-02
DAV:   3    -0.141557612561E+02   -0.68993E-04   -0.22405E-05    72   0.218E-02
   78 T=  1947. E= -.13652418E+02 F= -.14155761E+02 E0= -.14155761E+02  EK= 0.50334E+00 SP= 0.00E+00 SK= 0.00E+00
       N       E                     dE             d eps       ncg     rms          rms(c)
DAV:   1    -0.141624238360E+02   -0.67316E-02   -0.75678E-01    72   0.277E+00    0.151E-01
DAV:   2    -0.141627391851E+02   -0.31535E-03   -0.54503E-03    36   0.350E-01    0.860E-02
DAV:   3    -0.141627696950E+02   -0.30510E-04   -0.16557E-04    72   0.583E-02
   79 T=  1952. E= -.13658101E+02 F= -.14162770E+02 E0= -.14162770E+02  EK= 0.50467E+00 SP= 0.00E+00 SK= 0.00E+00
       N       E                     dE             d eps       ncg     rms          rms(c)
DAV:   1    -0.139807587266E+02    0.18198E+00   -0.65732E-01    36   0.291E+00    0.217E-01
DAV:   2    -0.139825080099E+02   -0.17493E-02   -0.21007E-02    72   0.647E-01    0.167E-01
DAV:   3    -0.139824059731E+02    0.10204E-03   -0.24285E-04    36   0.600E-02    0.101E-01
DAV:   4    -0.139824673571E+02   -0.61384E-04   -0.20282E-04    72   0.675E-02
   80 T=  1349. E= -.13633802E+02 F= -.13982467E+02 E0= -.13982467E+02  EK= 0.34867E+00 SP= 0.00E+00 SK= 0.00E+00
       N       E                     dE             d eps       ncg     rms          rms(c)
DAV:   1    -0.139646452973E+02    0.17761E-01   -0.94119E-01    36   0.469E+00    0.503E-01
DAV:   2    -0.139614284387E+02    0.32169E-02   -0.21255E-02    72   0.552E-01    0.199E-01
DAV:   3    -0.139612608855E+02    0.16755E-03   -0.42096E-04    36   0.108E-01    0.972E-02
DAV:   4    -0.139613364615E+02   -0.75576E-04   -0.29731E-04    72   0.889E-02
   81 T=  1283. E= -.13629676E+02 F= -.13961336E+02 E0= -.13961336E+02  EK= 0.33166E+00 SP= 0.00E+00 SK= 0.00E+00
       N       E                     dE             d eps       ncg     rms          rms(c)
DAV:   1    -0.141432503056E+02   -0.18199E+00   -0.51305E-01    54   0.314E+00    0.240E-01
DAV:   2    -0.141437148005E+02   -0.46449E-03   -0.80980E-03    36   0.423E-01    0.147E-01
DAV:   3    -0.141437486885E+02   -0.33888E-04   -0.69372E-04    54   0.131E-01
   82 T=  1872. E= -.13659843E+02 F= -.14143749E+02 E0= -.14143749E+02  EK= 0.48391E+00 SP= 0.00E+00 SK= 0.00E+00
       N       E                     dE             d eps       ncg     rms          rms(c)
DAV:   1    -0.141447419306E+02   -0.10271E-02   -0.50741E-01    36   0.298E+00    0.239E-01
DAV:   2    -0.141452394895E+02   -0.49756E-03   -0.17092E-02    72   0.628E-01    0.996E-02
DAV:   3    -0.141452276354E+02    0.11854E-04   -0.22967E-04    72   0.545E-02
   83 T=  1896. E= -.13655118E+02 F= -.14145228E+02 E0= -.14145228E+02  EK= 0.49011E+00 SP= 0.00E+00 SK= 0.00E+00
       N       E                     dE             d eps       ncg     rms          rms(c)
DAV:   1    -0.139928034268E+02    0.15244E+00   -0.40549E-01    36   0.295E+00    0.252E-01
DAV:   2    -0.139929545925E+02   -0.15117E-03   -0.17668E-02    54   0.607E-01    0.891E-02
DAV:   3    -0.139929516132E+02    0.29793E-05   -0.23224E-04    54   0.550E-02
   84 T=  1365. E= -.13640007E+02 F= -.13992952E+02 E0= -.13992952E+02  EK= 0.35295E+00 SP= 0.00E+00 SK= 0.00E+00
       N       E                     dE             d eps       ncg     rms          rms(c)
DAV:   1    -0.139093876723E+02    0.83567E-01   -0.34604E-01    72   0.288E+00    0.198E-01
DAV:   2    -0.139094124806E+02   -0.24808E-04   -0.57406E-03    36   0.339E-01    0.947E-02
DAV:   3    -0.139094717634E+02   -0.59283E-04   -0.11842E-04    72   0.496E-02
   85 T=  1064. E= -.13634425E+02 F= -.13909472E+02 E0= -.13909472E+02  EK= 0.27505E+00 SP= 0.00E+00 SK= 0.00E+00
       N       E                     dE             d eps       ncg     rms          rms(c)
DAV:   1    -0.139864050328E+02   -0.76993E-01   -0.21680E-01    54   0.181E+00    0.122E-01
DAV:   2    -0.139867246315E+02   -0.31960E-03   -0.39872E-03    36   0.275E-01    0.630E-02
DAV:   3    -0.139868424164E+02   -0.11778E-03   -0.61594E-05    72   0.331E-02    0.376E-02
DAV:   4    -0.139870355813E+02   -0.19316E-03   -0.50208E-05    54   0.312E-02    0.593E-03
DAV:   5    -0.139871029183E+02   -0.67337E-04   -0.95785E-06    54   0.101E-02
   86 T=  1344. E= -.13639742E+02 F= -.13987103E+02 E0= -.13987103E+02  EK= 0.34736E+00 SP= 0.00E+00 SK= 0.00E+00
       N       E                     dE             d eps       ncg     rms          rms(c)
DAV:   1    -0.141425799292E+02   -0.15554E+00   -0.49449E-01    54   0.200E+00    0.787E-02
DAV:   2    -0.141431066082E+02   -0.52668E-03   -0.49686E-03    36   0.314E-01    0.535E-02
DAV:   3    -0.141431850072E+02   -0.78399E-04   -0.93755E-05    72   0.377E-02
   87 T=  1896. E= -.13653071E+02 F= -.14143185E+02 E0= -.14143185E+02  EK= 0.49011E+00 SP= 0.00E+00 SK= 0.00E+00
       N       E                     dE             d eps       ncg     rms          rms(c)
DAV:   1    -0.141843152665E+02   -0.41209E-01   -0.87495E-01    54   0.287E+00    0.157E-01
DAV:   2    -0.141855327115E+02   -0.12174E-02   -0.11597E-02    36   0.478E-01    0.121E-01
DAV:   3    -0.141856306423E+02   -0.97931E-04   -0.51477E-04    72   0.913E-02
   88 T=  2031. E= -.13660529E+02 F= -.14185631E+02 E0= -.14185631E+02  EK= 0.52510E+00 SP= 0.00E+00 SK= 0.00E+00
       N       E                     dE             d eps       ncg     rms          rms(c)
DAV:   1    -0.140445824389E+02    0.14095E+00   -0.83989E-01    36   0.331E+00    0.270E-01
DAV:   2    -0.140454031147E+02   -0.82068E-03   -0.19652E-02    72   0.615E-01    0.154E-01
DAV:   3    -0.140453779528E+02    0.25162E-04   -0.20594E-04    72   0.598E-02
   89 T=  1557. E= -.13642865E+02 F= -.14045378E+02 E0= -.14045378E+02  EK= 0.40251E+00 SP= 0.00E+00 SK= 0.00E+00
       N       E                     dE             d eps       ncg     rms          rms(c)
DAV:   1    -0.139942524462E+02    0.51151E-01   -0.80201E-01    72   0.424E+00    0.441E-01
DAV:   2    -0.139918117009E+02    0.24407E-02   -0.18066E-02    72   0.522E-01    0.174E-01
DAV:   3    -0.139917277880E+02    0.83913E-04   -0.33730E-04    36   0.969E-02
   90 T=  1393. E= -.13631667E+02 F= -.13991728E+02 E0= -.13991728E+02  EK= 0.36006E+00 SP= 0.00E+00 SK= 0.00E+00
       N       E                     dE             d eps       ncg     rms          rms(c)
DAV:   1    -0.141393718360E+02   -0.14756E+00   -0.69638E-01    72   0.405E+00    0.342E-01
DAV:   2    -0.141394386009E+02   -0.66765E-04   -0.84966E-03    36   0.444E-01    0.201E-01
DAV:   3    -0.141396008135E+02   -0.16221E-03   -0.10882E-03    72   0.169E-01    0.363E-02
DAV:   4    -0.141397223390E+02   -0.12153E-03   -0.12064E-04    72   0.459E-02    0.136E-02
DAV:   5    -0.141398048409E+02   -0.82502E-04   -0.92240E-06    72   0.110E-02
   91 T=  1854. E= -.13660603E+02 F= -.14139805E+02 E0= -.14139805E+02  EK= 0.47920E+00 SP= 0.00E+00 SK= 0.00E+00
       N       E                     dE             d eps       ncg     rms          rms(c)
DAV:   1    -0.141320859831E+02    0.76364E-02   -0.51355E-01    72   0.310E+00    0.214E-01
DAV:   2    -0.141322490136E+02   -0.16303E-03   -0.76295E-03    36   0.419E-01    0.101E-01
DAV:   3    -0.141323418481E+02   -0.92834E-04   -0.17064E-04    72   0.616E-02
   92 T=  1840. E= -.13656554E+02 F= -.14132342E+02 E0= -.14132342E+02  EK= 0.47579E+00 SP= 0.00E+00 SK= 0.00E+00
       N       E                     dE             d eps       ncg     rms          rms(c)
DAV:   1    -0.139755662334E+02    0.15668E+00   -0.36613E-01    36   0.282E+00    0.206E-01
DAV:   2    -0.139762455655E+02   -0.67933E-03   -0.14059E-02    72   0.577E-01    0.885E-02
DAV:   3    -0.139763046421E+02   -0.59077E-04   -0.15031E-04    54   0.460E-02
   93 T=  1298. E= -.13640795E+02 F= -.13976305E+02 E0= -.13976305E+02  EK= 0.33551E+00 SP= 0.00E+00 SK= 0.00E+00
       N       E                     dE             d eps       ncg     rms          rms(c)
DAV:   1    -0.138979915158E+02    0.78254E-01   -0.36202E-01    72   0.292E+00    0.193E-01
DAV:   2    -0.138982460707E+02   -0.25455E-03   -0.39865E-03    36   0.301E-01    0.109E-01
DAV:   3    -0.138983648277E+02   -0.11876E-03   -0.16263E-04    72   0.598E-02    0.454E-02
DAV:   4    -0.138984540338E+02   -0.89206E-04   -0.43624E-05    72   0.342E-02
   94 T=  1017. E= -.13635479E+02 F= -.13898454E+02 E0= -.13898454E+02  EK= 0.26298E+00 SP= 0.00E+00 SK= 0.00E+00
       N       E                     dE             d eps       ncg     rms          rms(c)
DAV:   1    -0.139887262255E+02   -0.90361E-01   -0.21464E-01    72   0.173E+00    0.987E-02
DAV:   2    -0.139889411626E+02   -0.21494E-03   -0.16250E-03    36   0.187E-01    0.550E-02
DAV:   3    -0.139890663944E+02   -0.12523E-03   -0.39151E-05    72   0.286E-02    0.265E-02
DAV:   4    -0.139891759833E+02   -0.10959E-03   -0.22770E-05    54   0.218E-02    0.426E-03
DAV:   5    -0.139892145086E+02   -0.38525E-04   -0.49300E-06    54   0.758E-03
   95 T=  1346. E= -.13641152E+02 F= -.13989215E+02 E0= -.13989215E+02  EK= 0.34806E+00 SP= 0.00E+00 SK= 0.00E+00
       N       E                     dE             d eps       ncg     rms          rms(c)
DAV:   1    -0.141591875651E+02   -0.17001E+00   -0.47394E-01    72   0.192E+00    0.774E-02
DAV:   2    -0.141594879676E+02   -0.30040E-03   -0.27240E-03    36   0.235E-01    0.514E-02
DAV:   3    -0.141595447446E+02   -0.56777E-04   -0.50584E-05    54   0.330E-02
   96 T=  1952. E= -.13654870E+02 F= -.14159545E+02 E0= -.14159545E+02  EK= 0.50468E+00 SP= 0.00E+00 SK= 0.00E+00
       N       E                     dE             d eps       ncg     rms          rms(c)
DAV:   1    -0.142045385824E+02   -0.45051E-01   -0.82780E-01    54   0.289E+00    0.155E-01
DAV:   2    -0.142053121810E+02   -0.77360E-03   -0.88728E-03    72   0.423E-01    0.108E-01
DAV:   3    -0.142053718709E+02   -0.59690E-04   -0.33927E-04    72   0.843E-02
   97 T=  2094. E= -.13663975E+02 F= -.14205372E+02 E0= -.14205372E+02  EK= 0.54140E+00 SP= 0.00E+00 SK= 0.00E+00
       N       E                     dE             d eps       ncg     rms          rms(c)
DAV:   1    -0.140383418117E+02    0.16697E+00   -0.82157E-01    36   0.355E+00    0.247E-01
DAV:   2    -0.140398336581E+02   -0.14918E-02   -0.18854E-02    72   0.597E-01    0.180E-01
DAV:   3    -0.140397724837E+02    0.61174E-04   -0.34121E-04    72   0.886E-02
   98 T=  1540. E= -.13641698E+02 F= -.14039772E+02 E0= -.14039772E+02  EK= 0.39807E+00 SP= 0.00E+00 SK= 0.00E+00
       N       E                     dE             d eps       ncg     rms          rms(c)
DAV:   1    -0.140002802787E+02    0.39553E-01   -0.11611E+00    36   0.535E+00    0.611E-01
DAV:   2    -0.139958906495E+02    0.43896E-02   -0.24868E-02    72   0.612E-01    0.267E-01
DAV:   3    -0.139955324577E+02    0.35819E-03   -0.85469E-04    72   0.154E-01    0.122E-01
DAV:   4    -0.139955931812E+02   -0.60724E-04   -0.37796E-04    36   0.105E-01
   99 T=  1400. E= -.13633714E+02 F= -.13995593E+02 E0= -.13995593E+02  EK= 0.36188E+00 SP= 0.00E+00 SK= 0.00E+00
       N       E                     dE             d eps       ncg     rms          rms(c)
DAV:   1    -0.141591749459E+02   -0.16364E+00   -0.40684E-01    54   0.295E+00    0.213E-01
DAV:   2    -0.141598463219E+02   -0.67138E-03   -0.78271E-03    36   0.422E-01    0.129E-01
DAV:   3    -0.141600262323E+02   -0.17991E-03   -0.44128E-04    72   0.994E-02    0.281E-02
DAV:   4    -0.141600832489E+02   -0.57017E-04   -0.43467E-05    72   0.278E-02
  100 T=  1915. E= -.13664900E+02 F= -.14160083E+02 E0= -.14160083E+02  EK= 0.49518E+00 SP= 0.00E+00 SK= 0.00E+00
