 vasp.5.4.1 24Jun15 (build Apr 04 2016 10:44:54) complex                        
  
 executed on                Titan date 2018.12.04  13:37:08
 running on   18 total cores
 distrk:  each k-point on   18 cores,    1 groups
 distr:  one band on NCORES_PER_BAND=   1 cores,   18 groups


--------------------------------------------------------------------------------------------------------


 INCAR:
 POTCAR:   PAW_RPBE O 08Apr2002                   
 POTCAR:   PAW_RPBE H 15Jun2001                   

 ----------------------------------------------------------------------------- 
|                                                                             |
|           W    W    AA    RRRRR   N    N  II  N    N   GGGG   !!!           |
|           W    W   A  A   R    R  NN   N  II  NN   N  G    G  !!!           |
|           W    W  A    A  R    R  N N  N  II  N N  N  G       !!!           |
|           W WW W  AAAAAA  RRRRR   N  N N  II  N  N N  G  GGG   !            |
|           WW  WW  A    A  R   R   N   NN  II  N   NN  G    G                |
|           W    W  A    A  R    R  N    N  II  N    N   GGGG   !!!           |
|                                                                             |
|      For optimal performance we recommend to set                            |
|        NCORE= 4 - approx SQRT( number of cores)                             |
|      NCORE specifies how many cores store one orbital (NPAR=cpu/NCORE).     |
|      This setting can  greatly improve the performance of VASP for DFT.     |
|      The default, NPAR=number of cores might be grossly inefficient         |
|      on modern multi-core architectures or massively parallel machines.     |
|      Do your own testing !!!!                                               |
|      Unfortunately you need to use the default for GW and RPA calculations. |
|      (for HF NCORE is supported but not extensively tested yet)             |
|                                                                             |
 ----------------------------------------------------------------------------- 

 POTCAR:   PAW_RPBE O 08Apr2002                   
   VRHFIN =O: s2p4                                                              
   LEXCH  = PE                                                                  
   EATOM  =   432.3788 eV,   31.7789 Ry                                         
                                                                                
   TITEL  = PAW_RPBE O 08Apr2002                                                
   LULTRA =        F    use ultrasoft PP ?                                      
   IUNSCR =        0    unscreen: 0-lin 1-nonlin 2-no                           
   RPACOR =     .000    partial core radius                                     
   POMASS =   16.000; ZVAL   =    6.000    mass and valenz                      
   RCORE  =    1.520    outmost cutoff radius                                   
   RWIGS  =    1.550; RWIGS  =     .820    wigner-seitz radius (au A)           
   ENMAX  =  400.000; ENMIN  =  300.000 eV                                      
   ICORE  =        2    local potential                                         
   LCOR   =        T    correct aug charges                                     
   LPAW   =        T    paw PP                                                  
   EAUG   =  605.392                                                            
   DEXC   =     .000                                                            
   RMAX   =    2.264    core radius for proj-oper                               
   RAUG   =    1.300    factor for augmentation sphere                          
   RDEP   =    1.550    radius for radial grids                                 
   QCUT   =   -5.520; QGAM   =   11.041    optimization parameters              
                                                                                
   Description                                                                  
     l     E      TYP  RCUT    TYP  RCUT                                        
     0   .000     23  1.200                                                     
     0  -.700     23  1.200                                                     
     1   .000     23  1.520                                                     
     1   .600     23  1.520                                                     
     2   .000      7  1.500                                                     
  local pseudopotential read in
  atomic valenz-charges read in
  non local Contribution for L=           0  read in
    real space projection operators read in
  non local Contribution for L=           0  read in
    real space projection operators read in
  non local Contribution for L=           1  read in
    real space projection operators read in
  non local Contribution for L=           1  read in
    real space projection operators read in
    PAW grid and wavefunctions read in
 
   number of l-projection  operators is LMAX  =           4
   number of lm-projection operators is LMMAX =           8
 
 POTCAR:   PAW_RPBE H 15Jun2001                   
   VRHFIN =H: ultrasoft test                                                    
   LEXCH  = PE                                                                  
   EATOM  =    12.4884 eV,     .9179 Ry                                         
                                                                                
   TITEL  = PAW_RPBE H 15Jun2001                                                
   LULTRA =        F    use ultrasoft PP ?                                      
   IUNSCR =        0    unscreen: 0-lin 1-nonlin 2-no                           
   RPACOR =     .000    partial core radius                                     
   POMASS =    1.000; ZVAL   =    1.000    mass and valenz                      
   RCORE  =    1.100    outmost cutoff radius                                   
   RWIGS  =     .700; RWIGS  =     .370    wigner-seitz radius (au A)           
   ENMAX  =  250.000; ENMIN  =  200.000 eV                                      
   RCLOC  =     .701    cutoff for local pot                                    
   LCOR   =        T    correct aug charges                                     
   LPAW   =        T    paw PP                                                  
   EAUG   =  400.000                                                            
   RMAX   =    2.174    core radius for proj-oper                               
   RAUG   =    1.200    factor for augmentation sphere                          
   RDEP   =    1.112    radius for radial grids                                 
   QCUT   =   -5.749; QGAM   =   11.498    optimization parameters              
                                                                                
   Description                                                                  
     l     E      TYP  RCUT    TYP  RCUT                                        
     0   .000     23  1.100                                                     
     0   .500     23  1.100                                                     
     1  -.300     23  1.100                                                     
  local pseudopotential read in
  atomic valenz-charges read in
  non local Contribution for L=           0  read in
    real space projection operators read in
  non local Contribution for L=           0  read in
    real space projection operators read in
  non local Contribution for L=           1  read in
    real space projection operators read in
    PAW grid and wavefunctions read in
 
   number of l-projection  operators is LMAX  =           3
   number of lm-projection operators is LMMAX =           5
 
 PAW_RPBE O 08Apr2002                   :
 energy of atom  1       EATOM= -432.3788
 kinetic energy error for atom=    0.1156 (will be added to EATOM!!)
 PAW_RPBE H 15Jun2001                   :
 energy of atom  2       EATOM=  -12.4884
 kinetic energy error for atom=    0.0098 (will be added to EATOM!!)
 
 
 POSCAR: H2O _2                                  
  positions in cartesian coordinates
  No initial velocities read in
 exchange correlation table for  LEXCH =        8
   RHO(1)=    0.500       N(1)  =     2000
   RHO(2)=  100.500       N(2)  =     4000

 ----------------------------------------------------------------------------- 
|                                                                             |
|           W    W    AA    RRRRR   N    N  II  N    N   GGGG   !!!           |
|           W    W   A  A   R    R  NN   N  II  NN   N  G    G  !!!           |
|           W    W  A    A  R    R  N N  N  II  N N  N  G       !!!           |
|           W WW W  AAAAAA  RRRRR   N  N N  II  N  N N  G  GGG   !            |
|           WW  WW  A    A  R   R   N   NN  II  N   NN  G    G                |
|           W    W  A    A  R    R  N    N  II  N    N   GGGG   !!!           |
|                                                                             |
|      VASP found      6 degrees of freedom                                   |
|      the temperature will equal 2*E(kin)/ (degrees of freedom)              |
|      this differs from previous releases, where T was 2*E(kin)/(3 NIONS).   |
|      The new definition is more consistent                                  |
|                                                                             |
 ----------------------------------------------------------------------------- 

 


--------------------------------------------------------------------------------------------------------


 ion  position               nearest neighbor table
   1  0.000  0.000  0.000-   2 0.95   3 0.95
   2  0.092  0.881  0.000-   1 0.95
   3  0.092  0.119  0.000-   1 0.95
 
  LATTYP: Found a simple cubic cell.
 ALAT       =     6.3501600000
  
  Lattice vectors:
  
 A1 = (   6.3501600000,   0.0000000000,   0.0000000000)
 A2 = (   0.0000000000,   6.3501600000,   0.0000000000)
 A3 = (   0.0000000000,   0.0000000000,   6.3501600000)


Analysis of symmetry for initial positions (statically):
=====================================================================
 Subroutine PRICEL returns:
 Original cell was already a primitive cell.
 

 Routine SETGRP: Setting up the symmetry group for a 
 simple cubic supercell.


 Subroutine GETGRP returns: Found  4 space group operations
 (whereof  4 operations were pure point group operations)
 out of a pool of 48 trial point group operations.


The static configuration has the point symmetry C_2v.


Analysis of symmetry for dynamics (positions and initial velocities):
=====================================================================
 Subroutine PRICEL returns:
 Original cell was already a primitive cell.
 

 Routine SETGRP: Setting up the symmetry group for a 
 simple cubic supercell.


 Subroutine GETGRP returns: Found  2 space group operations
 (whereof  2 operations were pure point group operations)
 out of a pool of 48 trial point group operations.


The dynamic configuration has the point symmetry C_1h.


Analysis of constrained symmetry for selective dynamics:
=====================================================================
 Subroutine PRICEL returns:
 Original cell was already a primitive cell.
 

 Routine SETGRP: Setting up the symmetry group for a 
 simple cubic supercell.


 Subroutine GETGRP returns: Found  2 space group operations
 (whereof  2 operations were pure point group operations)
 out of a pool of 48 trial point group operations.


The constrained configuration has the point symmetry C_1h.
 
 
 KPOINTS: Gamma-point only                        
  k-points in reciprocal lattice
Space group operators:
 irot       det(A)        alpha          n_x          n_y          n_z        tau_x        tau_y        tau_z
    1     1.000000     0.000000     1.000000     0.000000     0.000000     0.000000     0.000000     0.000000
    2    -1.000000   180.000000     0.000000     0.000000     1.000000     0.000000     0.000000     0.000000


--------------------------------------------------------------------------------------------------------




 Dimension of arrays:
   k-points           NKPTS =      1   k-points in BZ     NKDIM =      1   number of bands    NBANDS=     18
   number of dos      NEDOS =    301   number of ions     NIONS =      3
   non local maximal  LDIM  =      4   non local SUM 2l+1 LMDIM =      8
   total plane-waves  NPLWV =  32768
   max r-space proj   IRMAX =      1   max aug-charges    IRDMAX=   1860
   dimension x,y,z NGX =    32 NGY =   32 NGZ =   32
   dimension x,y,z NGXF=    64 NGYF=   64 NGZF=   64
   support grid    NGXF=    64 NGYF=   64 NGZF=   64
   ions per type =               1   2
 NGX,Y,Z   is equivalent  to a cutoff of   8.38,  8.38,  8.38 a.u.
 NGXF,Y,Z  is equivalent  to a cutoff of  16.76, 16.76, 16.76 a.u.


 I would recommend the setting:
   dimension x,y,z NGX =    31 NGY =   31 NGZ =   31
 SYSTEM =  unknown system                          
 POSCAR =  H2O _2                                  

 Startparameter for this run:
   NWRITE =      2    write-flag & timer
   PREC   = normal    normal or accurate (medium, high low for compatibility)
   ISTART =      0    job   : 0-new  1-cont  2-samecut
   ICHARG =      2    charge: 1-file 2-atom 10-const
   ISPIN  =      1    spin polarized calculation?
   LNONCOLLINEAR =      F non collinear calculations
   LSORBIT =      F    spin-orbit coupling
   INIWAV =      1    electr: 0-lowe 1-rand  2-diag
   LASPH  =      F    aspherical Exc in radial PAW
   METAGGA=      F    non-selfconsistent MetaGGA calc.

 Electronic Relaxation 1
   ENCUT  =  400.0 eV  29.40 Ry    5.42 a.u.  10.36 10.36 10.36*2*pi/ulx,y,z
   ENINI  =  400.0     initial cutoff
   ENAUG  =  605.4 eV  augmentation charge cutoff
   NELM   =     60;   NELMIN=  2; NELMDL= -5     # of ELM steps 
   EDIFF  = 0.1E-03   stopping-criterion for ELM
   LREAL  =      F    real-space projection
   NLSPLINE    = F    spline interpolate recip. space projectors
   LCOMPAT=      F    compatible to vasp.4.4
   GGA_COMPAT  = T    GGA compatible to vasp.4.4-vasp.4.6
   LMAXPAW     = -100 max onsite density
   LMAXMIX     =    2 max onsite mixed and CHGCAR
   VOSKOWN=      0    Vosko Wilk Nusair interpolation
   ROPT   =    0.00000   0.00000
 Ionic relaxation
   EDIFFG = 0.1E-02   stopping-criterion for IOM
   NSW    =    100    number of steps for IOM
   NBLOCK =      1;   KBLOCK =    100    inner block; outer block 
   IBRION =      0    ionic relax: 0-MD 1-quasi-New 2-CG
   NFREE  =      0    steps in history (QN), initial steepest desc. (CG)
   ISIF   =      0    stress and relaxation
   IWAVPR =     12    prediction:  0-non 1-charg 2-wave 3-comb
   ISYM   =      2    0-nonsym 1-usesym 2-fastsym
   LCORR  =      T    Harris-Foulkes like correction to forces

   POTIM  = 1.0000    time-step for ionic-motion
   TEIN   = 2000.0    initial temperature
   TEBEG  = 2000.0;   TEEND  =2000.0 temperature during run
   SMASS  =  -3.00    Nose mass-parameter (am)
   estimated Nose-frequenzy (Omega)   =  0.10E-29 period in steps =****** mass=  -0.922E-27a.u.
   SCALEE = 1.0000    scale energy and forces
   NPACO  =    256;   APACO  = 16.0  distance and # of slots for P.C.
   PSTRESS=    0.0 pullay stress

  Mass of Ions in am
   POMASS =  16.00  1.00
  Ionic Valenz
   ZVAL   =   6.00  1.00
  Atomic Wigner-Seitz radii
   RWIGS  =  -1.00 -1.00
  virtual crystal weights 
   VCA    =   1.00  1.00
   NELECT =       8.0000    total number of electrons
   NUPDOWN=      -1.0000    fix difference up-down

 DOS related values:
   EMIN   =  10.00;   EMAX   =-10.00  energy-range for DOS
   EFERMI =   0.00
   ISMEAR =     0;   SIGMA  =   0.10  broadening in eV -4-tet -1-fermi 0-gaus

 Electronic relaxation 2 (details)
   IALGO  =     38    algorithm
   LDIAG  =      T    sub-space diagonalisation (order eigenvalues)
   LSUBROT=      F    optimize rotation matrix (better conditioning)
   TURBO    =      0    0=normal 1=particle mesh
   IRESTART =      0    0=no restart 2=restart with 2 vectors
   NREBOOT  =      0    no. of reboots
   NMIN     =      0    reboot dimension
   EREF     =   0.00    reference energy to select bands
   IMIX   =      4    mixing-type and parameters
     AMIX     =   0.40;   BMIX     =  1.00
     AMIX_MAG =   1.60;   BMIX_MAG =  1.00
     AMIN     =   0.10
     WC   =   100.;   INIMIX=   1;  MIXPRE=   1;  MAXMIX= -45

 Intra band minimization:
   WEIMIN = 0.0010     energy-eigenvalue tresh-hold
   EBREAK =  0.14E-05  absolut break condition
   DEPER  =   0.30     relativ break condition  

   TIME   =   0.40     timestep for ELM

  volume/ion in A,a.u.               =      85.36       576.01
  Fermi-wavevector in a.u.,A,eV,Ry     =   0.515609  0.974359  3.617139  0.265852
  Thomas-Fermi vector in A             =   1.531137
 
 Write flags
   LWAVE  =      T    write WAVECAR
   LCHARG =      T    write CHGCAR
   LVTOT  =      F    write LOCPOT, total local potential
   LVHAR  =      F    write LOCPOT, Hartree potential only
   LELF   =      F    write electronic localiz. function (ELF)
   LORBIT =      0    0 simple, 1 ext, 2 COOP (PROOUT)


 Dipole corrections
   LMONO  =      F    monopole corrections only (constant potential shift)
   LDIPOL =      F    correct potential (dipole corrections)
   IDIPOL =      0    1-x, 2-y, 3-z, 4-all directions 
   EPSILON=  1.0000000 bulk dielectric constant

 Exchange correlation treatment:
   GGA     =    --    GGA type
   LEXCH   =     8    internal setting for exchange type
   VOSKOWN=      0    Vosko Wilk Nusair interpolation
   LHFCALC =     F    Hartree Fock is set to
   LHFONE  =     F    Hartree Fock one center treatment
   AEXX    =    0.0000 exact exchange contribution

 Linear response parameters
   LEPSILON=     F    determine dielectric tensor
   LRPA    =     F    only Hartree local field effects (RPA)
   LNABLA  =     F    use nabla operator in PAW spheres
   LVEL    =     F    velocity operator in full k-point grid
   LINTERFAST=   F  fast interpolation
   KINTER  =     0    interpolate to denser k-point grid
   CSHIFT  =0.1000    complex shift for real part using Kramers Kronig
   OMEGAMAX=  -1.0    maximum frequency
   DEG_THRESHOLD= 0.2000000E-02 threshold for treating states as degnerate
   RTIME   =    0.100 relaxation time in fs

 Orbital magnetization related:
   ORBITALMAG=     F  switch on orbital magnetization
   LCHIMAG   =     F  perturbation theory with respect to B field
   DQ        =  0.001000  dq finite difference perturbation B field



--------------------------------------------------------------------------------------------------------


 molecular dynamics for ions
   using a microcanonical ensemble
   using selective dynamics as specified on POSCAR
   WARNING: If single coordinates had been selected the selection of coordinates
            is made according to the corresponding   d i r e c t   coordinates!
            Don't support selection of single cartesian coordinates -- sorry ...
  !
 charge density and potential will be updated during run
 non-spin polarized calculation
 Variant of blocked Davidson
 Davidson routine will perform the subspace rotation
 perform sub-space diagonalisation
    after iterative eigenvector-optimisation
 modified Broyden-mixing scheme, WC =      100.0
 initial mixing is a Kerker type mixing with AMIX =  0.4000 and BMIX =      1.0000
 Hartree-type preconditioning will be used
 using additional bands           14
 reciprocal scheme for non local part
 calculate Harris-corrections to forces 
   (improved forces if not selfconsistent)
 use gradient corrections 
 use of overlap-Matrix (Vanderbilt PP)
 Gauss-broadening in eV      SIGMA  =   0.10


--------------------------------------------------------------------------------------------------------


  energy-cutoff  :      400.00
  volume of cell :      256.07
      direct lattice vectors                 reciprocal lattice vectors
     6.350160000  0.000000000  0.000000000     0.157476347  0.000000000  0.000000000
     0.000000000  6.350160000  0.000000000     0.000000000  0.157476347  0.000000000
     0.000000000  0.000000000  6.350160000     0.000000000  0.000000000  0.157476347

  length of vectors
     6.350160000  6.350160000  6.350160000     0.157476347  0.157476347  0.157476347


 
 k-points in units of 2pi/SCALE and weight: Gamma-point only                        
   0.00000000  0.00000000  0.00000000       1.000
 
 k-points in reciprocal lattice and weights: Gamma-point only                        
   0.00000000  0.00000000  0.00000000       1.000
 
 position of ions in fractional coordinates (direct lattice) 
   0.00000000  0.00000000  0.00000000
   0.09166667  0.88083333  0.00000000
   0.09166667  0.11916667  0.00000000
 
 position of ions in cartesian coordinates  (Angst):
   0.00000000  0.00000000  0.00000000
   0.58209800  5.59343260  0.00000000
   0.58209800  0.75672740  0.00000000
 


--------------------------------------------------------------------------------------------------------


 k-point  1 :   0.0000 0.0000 0.0000  plane waves:    4697

 maximum and minimum number of plane-waves per node :      4697     4697

 maximum number of plane-waves:      4697
 maximum index in each direction: 
   IXMAX=   10   IYMAX=   10   IZMAX=   10
   IXMIN=  -10   IYMIN=  -10   IZMIN=  -10

 WARNING: aliasing errors must be expected set NGX to  42 to avoid them
 WARNING: aliasing errors must be expected set NGY to  42 to avoid them
 WARNING: aliasing errors must be expected set NGZ to  42 to avoid them
 aliasing errors are usually negligible using standard VASP settings
 and one can safely disregard these warnings

 serial   3D FFT for wavefunctions
 parallel 3D FFT for charge:
    minimum data exchange during FFTs selected (reduces bandwidth)


 total amount of memory used by VASP on root node    33868. kBytes
========================================================================

   base      :      30000. kBytes
   nonl-proj :        826. kBytes
   fftplans  :        693. kBytes
   grid      :       2265. kBytes
   one-center:          9. kBytes
   wavefun   :         75. kBytes
 
     INWAV:  cpu time    0.0000: real time    0.0000
 Broyden mixing: mesh for mixing (old mesh)
   NGX = 21   NGY = 21   NGZ = 21
  (NGX  = 64   NGY  = 64   NGZ  = 64)
  gives a total of   9261 points

 initial charge density was supplied:
 charge density of overlapping atoms calculated
 number of electron       8.0000000 magnetization 
 keeping initial charge density in first step


--------------------------------------------------------------------------------------------------------


 Maximum index for augmentation-charges          169 (set IRDMAX)


--------------------------------------------------------------------------------------------------------


 First call to EWALD:  gamma=   0.279
 Maximum number of real-space cells 3x 3x 3
 Maximum number of reciprocal cells 3x 3x 3

 FEWALD executed in parallel
    FEWALD:  cpu time    0.0040: real time    0.0023


----------------------------------------- Iteration    1(   1)  ---------------------------------------


    POTLOK:  cpu time    0.0160: real time    0.0181
    SETDIJ:  cpu time    0.0040: real time    0.0022
     EDDAV:  cpu time    0.0200: real time    0.0215
       DOS:  cpu time    0.0000: real time    0.0002
    --------------------------------------------
      LOOP:  cpu time    0.0440: real time    0.0487

 eigenvalue-minimisations  :    36
 total energy-change (2. order) : 0.2877965E+02  (-0.1924566E+03)
 number of electron       8.0000000 magnetization 
 augmentation part        8.0000000 magnetization 

 Free energy of the ion-electron system (eV)
  ---------------------------------------------------
  alpha Z        PSCENC =         0.87564028
  Ewald energy   TEWEN  =       -13.80331150
  -Hartree energ DENC   =      -348.16693738
  -exchange      EXHF   =         0.00000000
  -V(xc)+E(xc)   XCENC  =        32.30093936
  PAW double counting   =       247.56105404     -249.42875511
  entropy T*S    EENTRO =        -0.00000000
  eigenvalues    EBANDS =       -97.77944021
  atomic energy  EATOM  =       457.22046137
  Solvation  Ediel_sol  =         0.00000000
  ---------------------------------------------------
  free energy    TOTEN  =        28.77965084 eV

  energy without entropy =       28.77965084  energy(sigma->0) =       28.77965084


--------------------------------------------------------------------------------------------------------




----------------------------------------- Iteration    1(   2)  ---------------------------------------


     EDDAV:  cpu time    0.0320: real time    0.0319
       DOS:  cpu time    0.0000: real time    0.0001
    --------------------------------------------
      LOOP:  cpu time    0.0360: real time    0.0392

 eigenvalue-minimisations  :    54
 total energy-change (2. order) :-0.4395639E+02  (-0.4395639E+02)
 number of electron       8.0000000 magnetization 
 augmentation part        8.0000000 magnetization 

 Free energy of the ion-electron system (eV)
  ---------------------------------------------------
  alpha Z        PSCENC =         0.87564028
  Ewald energy   TEWEN  =       -13.80331150
  -Hartree energ DENC   =      -348.16693738
  -exchange      EXHF   =         0.00000000
  -V(xc)+E(xc)   XCENC  =        32.30093936
  PAW double counting   =       247.56105404     -249.42875511
  entropy T*S    EENTRO =        -0.00000000
  eigenvalues    EBANDS =      -141.73582888
  atomic energy  EATOM  =       457.22046137
  Solvation  Ediel_sol  =         0.00000000
  ---------------------------------------------------
  free energy    TOTEN  =       -15.17673783 eV

  energy without entropy =      -15.17673783  energy(sigma->0) =      -15.17673783


--------------------------------------------------------------------------------------------------------




----------------------------------------- Iteration    1(   3)  ---------------------------------------


     EDDAV:  cpu time    0.0200: real time    0.0201
       DOS:  cpu time    0.0000: real time    0.0001
    --------------------------------------------
      LOOP:  cpu time    0.0200: real time    0.0262

 eigenvalue-minimisations  :    36
 total energy-change (2. order) :-0.1143774E+01  (-0.1143774E+01)
 number of electron       8.0000000 magnetization 
 augmentation part        8.0000000 magnetization 

 Free energy of the ion-electron system (eV)
  ---------------------------------------------------
  alpha Z        PSCENC =         0.87564028
  Ewald energy   TEWEN  =       -13.80331150
  -Hartree energ DENC   =      -348.16693738
  -exchange      EXHF   =         0.00000000
  -V(xc)+E(xc)   XCENC  =        32.30093936
  PAW double counting   =       247.56105404     -249.42875511
  entropy T*S    EENTRO =        -0.00000000
  eigenvalues    EBANDS =      -142.87960295
  atomic energy  EATOM  =       457.22046137
  Solvation  Ediel_sol  =         0.00000000
  ---------------------------------------------------
  free energy    TOTEN  =       -16.32051190 eV

  energy without entropy =      -16.32051190  energy(sigma->0) =      -16.32051190


--------------------------------------------------------------------------------------------------------




----------------------------------------- Iteration    1(   4)  ---------------------------------------


     EDDAV:  cpu time    0.0480: real time    0.0476
       DOS:  cpu time    0.0000: real time    0.0001
    --------------------------------------------
      LOOP:  cpu time    0.0520: real time    0.0532

 eigenvalue-minimisations  :    72
 total energy-change (2. order) :-0.4162032E-02  (-0.4162032E-02)
 number of electron       8.0000000 magnetization 
 augmentation part        8.0000000 magnetization 

 Free energy of the ion-electron system (eV)
  ---------------------------------------------------
  alpha Z        PSCENC =         0.87564028
  Ewald energy   TEWEN  =       -13.80331150
  -Hartree energ DENC   =      -348.16693738
  -exchange      EXHF   =         0.00000000
  -V(xc)+E(xc)   XCENC  =        32.30093936
  PAW double counting   =       247.56105404     -249.42875511
  entropy T*S    EENTRO =        -0.00000000
  eigenvalues    EBANDS =      -142.88376498
  atomic energy  EATOM  =       457.22046137
  Solvation  Ediel_sol  =         0.00000000
  ---------------------------------------------------
  free energy    TOTEN  =       -16.32467393 eV

  energy without entropy =      -16.32467393  energy(sigma->0) =      -16.32467393


--------------------------------------------------------------------------------------------------------




----------------------------------------- Iteration    1(   5)  ---------------------------------------


     EDDAV:  cpu time    0.0200: real time    0.0200
       DOS:  cpu time    0.0000: real time    0.0001
    CHARGE:  cpu time    0.0080: real time    0.0092
    MIXING:  cpu time    0.0000: real time    0.0007
    --------------------------------------------
      LOOP:  cpu time    0.0320: real time    0.0358

 eigenvalue-minimisations  :    36
 total energy-change (2. order) :-0.2948218E-07  (-0.2948201E-07)
 number of electron       8.0000134 magnetization 
 augmentation part        0.8401606 magnetization 

 Broyden mixing:
  rms(total) = 0.78704E+00    rms(broyden)= 0.78520E+00
  rms(prec ) = 0.13820E+01
  weight for this iteration     100.00

 Free energy of the ion-electron system (eV)
  ---------------------------------------------------
  alpha Z        PSCENC =         0.87564028
  Ewald energy   TEWEN  =       -13.80331150
  -Hartree energ DENC   =      -348.16693738
  -exchange      EXHF   =         0.00000000
  -V(xc)+E(xc)   XCENC  =        32.30093936
  PAW double counting   =       247.56105404     -249.42875511
  entropy T*S    EENTRO =        -0.00000000
  eigenvalues    EBANDS =      -142.88376501
  atomic energy  EATOM  =       457.22046137
  Solvation  Ediel_sol  =         0.00000000
  ---------------------------------------------------
  free energy    TOTEN  =       -16.32467396 eV

  energy without entropy =      -16.32467396  energy(sigma->0) =      -16.32467396


--------------------------------------------------------------------------------------------------------




----------------------------------------- Iteration    1(   6)  ---------------------------------------


    POTLOK:  cpu time    0.0160: real time    0.0159
    SETDIJ:  cpu time    0.0040: real time    0.0022
     EDDAV:  cpu time    0.0200: real time    0.0203
       DOS:  cpu time    0.0000: real time    0.0001
    CHARGE:  cpu time    0.0080: real time    0.0074
    MIXING:  cpu time    0.0000: real time    0.0007
    --------------------------------------------
      LOOP:  cpu time    0.0480: real time    0.0528

 eigenvalue-minimisations  :    36
 total energy-change (2. order) : 0.1944811E+01  (-0.9454113E+00)
 number of electron       8.0000113 magnetization 
 augmentation part        0.7068532 magnetization 

 Broyden mixing:
  rms(total) = 0.30184E+00    rms(broyden)= 0.30135E+00
  rms(prec ) = 0.44417E+00
  weight for this iteration     100.00

 eigenvalues of (default mixing * dielectric matrix)
  average eigenvalue GAMMA=   0.9280
  0.9280

 Free energy of the ion-electron system (eV)
  ---------------------------------------------------
  alpha Z        PSCENC =         0.87564028
  Ewald energy   TEWEN  =       -13.80331150
  -Hartree energ DENC   =      -372.55273174
  -exchange      EXHF   =         0.00000000
  -V(xc)+E(xc)   XCENC  =        33.67148836
  PAW double counting   =       304.27315323     -306.49331251
  entropy T*S    EENTRO =        -0.00000000
  eigenvalues    EBANDS =      -117.57125022
  atomic energy  EATOM  =       457.22046137
  Solvation  Ediel_sol  =         0.00000000
  ---------------------------------------------------
  free energy    TOTEN  =       -14.37986273 eV

  energy without entropy =      -14.37986273  energy(sigma->0) =      -14.37986273


--------------------------------------------------------------------------------------------------------




----------------------------------------- Iteration    1(   7)  ---------------------------------------


    POTLOK:  cpu time    0.0160: real time    0.0157
    SETDIJ:  cpu time    0.0040: real time    0.0022
     EDDAV:  cpu time    0.0480: real time    0.0471
       DOS:  cpu time    0.0000: real time    0.0001
    CHARGE:  cpu time    0.0040: real time    0.0071
    MIXING:  cpu time    0.0040: real time    0.0006
    --------------------------------------------
      LOOP:  cpu time    0.0760: real time    0.0788

 eigenvalue-minimisations  :    72
 total energy-change (2. order) : 0.1144233E+00  (-0.6680945E-02)
 number of electron       8.0000112 magnetization 
 augmentation part        0.7011327 magnetization 

 Broyden mixing:
  rms(total) = 0.18788E+00    rms(broyden)= 0.18785E+00
  rms(prec ) = 0.28155E+00
  weight for this iteration     100.00

 eigenvalues of (default mixing * dielectric matrix)
  average eigenvalue GAMMA=   1.7701
  1.0470  2.4932

 Free energy of the ion-electron system (eV)
  ---------------------------------------------------
  alpha Z        PSCENC =         0.87564028
  Ewald energy   TEWEN  =       -13.80331150
  -Hartree energ DENC   =      -376.57366674
  -exchange      EXHF   =         0.00000000
  -V(xc)+E(xc)   XCENC  =        33.88707251
  PAW double counting   =       318.46116463     -320.65416904
  entropy T*S    EENTRO =        -0.00000000
  eigenvalues    EBANDS =      -113.67863096
  atomic energy  EATOM  =       457.22046137
  Solvation  Ediel_sol  =         0.00000000
  ---------------------------------------------------
  free energy    TOTEN  =       -14.26543945 eV

  energy without entropy =      -14.26543945  energy(sigma->0) =      -14.26543945


--------------------------------------------------------------------------------------------------------




----------------------------------------- Iteration    1(   8)  ---------------------------------------


    POTLOK:  cpu time    0.0160: real time    0.0151
    SETDIJ:  cpu time    0.0000: real time    0.0022
     EDDAV:  cpu time    0.0200: real time    0.0200
       DOS:  cpu time    0.0000: real time    0.0001
    CHARGE:  cpu time    0.0040: real time    0.0071
    MIXING:  cpu time    0.0000: real time    0.0006
    --------------------------------------------
      LOOP:  cpu time    0.0440: real time    0.0534

 eigenvalue-minimisations  :    36
 total energy-change (2. order) : 0.7833743E-01  (-0.7776633E-02)
 number of electron       8.0000112 magnetization 
 augmentation part        0.6988158 magnetization 

 Broyden mixing:
  rms(total) = 0.25209E-01    rms(broyden)= 0.25200E-01
  rms(prec ) = 0.55899E-01
  weight for this iteration     100.00

 eigenvalues of (default mixing * dielectric matrix)
  average eigenvalue GAMMA=   1.5449
  2.3288  1.0305  1.2756

 Free energy of the ion-electron system (eV)
  ---------------------------------------------------
  alpha Z        PSCENC =         0.87564028
  Ewald energy   TEWEN  =       -13.80331150
  -Hartree energ DENC   =      -382.23874350
  -exchange      EXHF   =         0.00000000
  -V(xc)+E(xc)   XCENC  =        34.21529204
  PAW double counting   =       338.73171455     -340.87411720
  entropy T*S    EENTRO =        -0.00000000
  eigenvalues    EBANDS =      -108.31403807
  atomic energy  EATOM  =       457.22046137
  Solvation  Ediel_sol  =         0.00000000
  ---------------------------------------------------
  free energy    TOTEN  =       -14.18710203 eV

  energy without entropy =      -14.18710203  energy(sigma->0) =      -14.18710203


--------------------------------------------------------------------------------------------------------




----------------------------------------- Iteration    1(   9)  ---------------------------------------


    POTLOK:  cpu time    0.0160: real time    0.0151
    SETDIJ:  cpu time    0.0000: real time    0.0022
     EDDAV:  cpu time    0.0200: real time    0.0201
       DOS:  cpu time    0.0000: real time    0.0001
    CHARGE:  cpu time    0.0080: real time    0.0071
    MIXING:  cpu time    0.0000: real time    0.0007
    --------------------------------------------
      LOOP:  cpu time    0.0480: real time    0.0559

 eigenvalue-minimisations  :    36
 total energy-change (2. order) :-0.1054925E-01  (-0.7249000E-03)
 number of electron       8.0000111 magnetization 
 augmentation part        0.6956495 magnetization 

 Broyden mixing:
  rms(total) = 0.18249E-01    rms(broyden)= 0.18244E-01
  rms(prec ) = 0.34045E-01
  weight for this iteration     100.00

 eigenvalues of (default mixing * dielectric matrix)
  average eigenvalue GAMMA=   1.9319
  1.0092  1.0092  3.2154  2.4939

 Free energy of the ion-electron system (eV)
  ---------------------------------------------------
  alpha Z        PSCENC =         0.87564028
  Ewald energy   TEWEN  =       -13.80331150
  -Hartree energ DENC   =      -382.70563934
  -exchange      EXHF   =         0.00000000
  -V(xc)+E(xc)   XCENC  =        34.21296442
  PAW double counting   =       334.07187452     -336.22010836
  entropy T*S    EENTRO =        -0.00000000
  eigenvalues    EBANDS =      -107.84953266
  atomic energy  EATOM  =       457.22046137
  Solvation  Ediel_sol  =         0.00000000
  ---------------------------------------------------
  free energy    TOTEN  =       -14.19765127 eV

  energy without entropy =      -14.19765127  energy(sigma->0) =      -14.19765127


--------------------------------------------------------------------------------------------------------




----------------------------------------- Iteration    1(  10)  ---------------------------------------


    POTLOK:  cpu time    0.0160: real time    0.0152
    SETDIJ:  cpu time    0.0000: real time    0.0022
     EDDAV:  cpu time    0.0480: real time    0.0473
       DOS:  cpu time    0.0000: real time    0.0001
    CHARGE:  cpu time    0.0080: real time    0.0071
    MIXING:  cpu time    0.0000: real time    0.0007
    --------------------------------------------
      LOOP:  cpu time    0.0760: real time    0.0789

 eigenvalue-minimisations  :    72
 total energy-change (2. order) :-0.4799538E-02  (-0.2547574E-03)
 number of electron       8.0000111 magnetization 
 augmentation part        0.6971791 magnetization 

 Broyden mixing:
  rms(total) = 0.43073E-02    rms(broyden)= 0.43015E-02
  rms(prec ) = 0.96667E-02
  weight for this iteration     100.00

 eigenvalues of (default mixing * dielectric matrix)
  average eigenvalue GAMMA=   1.9896
  3.5352  1.0163  1.0163  2.2826  2.0976

 Free energy of the ion-electron system (eV)
  ---------------------------------------------------
  alpha Z        PSCENC =         0.87564028
  Ewald energy   TEWEN  =       -13.80331150
  -Hartree energ DENC   =      -383.03437721
  -exchange      EXHF   =         0.00000000
  -V(xc)+E(xc)   XCENC  =        34.22055845
  PAW double counting   =       333.11019371     -335.24867529
  entropy T*S    EENTRO =        -0.00000000
  eigenvalues    EBANDS =      -107.54294061
  atomic energy  EATOM  =       457.22046137
  Solvation  Ediel_sol  =         0.00000000
  ---------------------------------------------------
  free energy    TOTEN  =       -14.20245081 eV

  energy without entropy =      -14.20245081  energy(sigma->0) =      -14.20245081


--------------------------------------------------------------------------------------------------------




----------------------------------------- Iteration    1(  11)  ---------------------------------------


    POTLOK:  cpu time    0.0120: real time    0.0155
    SETDIJ:  cpu time    0.0040: real time    0.0022
     EDDAV:  cpu time    0.0480: real time    0.0476
       DOS:  cpu time    0.0000: real time    0.0001
    CHARGE:  cpu time    0.0080: real time    0.0073
    MIXING:  cpu time    0.0000: real time    0.0008
    --------------------------------------------
      LOOP:  cpu time    0.0760: real time    0.0870

 eigenvalue-minimisations  :    72
 total energy-change (2. order) :-0.3630944E-02  (-0.1106673E-03)
 number of electron       8.0000111 magnetization 
 augmentation part        0.6963668 magnetization 

 Broyden mixing:
  rms(total) = 0.29768E-02    rms(broyden)= 0.29754E-02
  rms(prec ) = 0.60847E-02
  weight for this iteration     100.00

 eigenvalues of (default mixing * dielectric matrix)
  average eigenvalue GAMMA=   2.1279
  4.2681  3.0305  2.3427  0.9915  0.9915  1.1431

 Free energy of the ion-electron system (eV)
  ---------------------------------------------------
  alpha Z        PSCENC =         0.87564028
  Ewald energy   TEWEN  =       -13.80331150
  -Hartree energ DENC   =      -383.25953425
  -exchange      EXHF   =         0.00000000
  -V(xc)+E(xc)   XCENC  =        34.22971547
  PAW double counting   =       334.08401384     -336.22465418
  entropy T*S    EENTRO =        -0.00000000
  eigenvalues    EBANDS =      -107.32841278
  atomic energy  EATOM  =       457.22046137
  Solvation  Ediel_sol  =         0.00000000
  ---------------------------------------------------
  free energy    TOTEN  =       -14.20608176 eV

  energy without entropy =      -14.20608176  energy(sigma->0) =      -14.20608176


--------------------------------------------------------------------------------------------------------




----------------------------------------- Iteration    1(  12)  ---------------------------------------


    POTLOK:  cpu time    0.0160: real time    0.0153
    SETDIJ:  cpu time    0.0040: real time    0.0022
     EDDAV:  cpu time    0.0320: real time    0.0315
       DOS:  cpu time    0.0000: real time    0.0001
    CHARGE:  cpu time    0.0080: real time    0.0071
    MIXING:  cpu time    0.0000: real time    0.0008
    --------------------------------------------
      LOOP:  cpu time    0.0600: real time    0.0626

 eigenvalue-minimisations  :    54
 total energy-change (2. order) :-0.8147174E-03  (-0.3630842E-04)
 number of electron       8.0000111 magnetization 
 augmentation part        0.6971056 magnetization 

 Broyden mixing:
  rms(total) = 0.90277E-03    rms(broyden)= 0.89913E-03
  rms(prec ) = 0.18640E-02
  weight for this iteration     100.00

 eigenvalues of (default mixing * dielectric matrix)
  average eigenvalue GAMMA=   2.1862
  4.6954  3.0084  2.5586  2.0680  1.0322  0.9703  0.9703

 Free energy of the ion-electron system (eV)
  ---------------------------------------------------
  alpha Z        PSCENC =         0.87564028
  Ewald energy   TEWEN  =       -13.80331150
  -Hartree energ DENC   =      -383.07486406
  -exchange      EXHF   =         0.00000000
  -V(xc)+E(xc)   XCENC  =        34.21822464
  PAW double counting   =       333.86925027     -336.00890412
  entropy T*S    EENTRO =        -0.00000000
  eigenvalues    EBANDS =      -107.50339335
  atomic energy  EATOM  =       457.22046137
  Solvation  Ediel_sol  =         0.00000000
  ---------------------------------------------------
  free energy    TOTEN  =       -14.20689647 eV

  energy without entropy =      -14.20689647  energy(sigma->0) =      -14.20689647


--------------------------------------------------------------------------------------------------------




----------------------------------------- Iteration    1(  13)  ---------------------------------------


    POTLOK:  cpu time    0.0160: real time    0.0156
    SETDIJ:  cpu time    0.0040: real time    0.0022
     EDDAV:  cpu time    0.0440: real time    0.0472
       DOS:  cpu time    0.0000: real time    0.0001
    CHARGE:  cpu time    0.0040: real time    0.0071
    MIXING:  cpu time    0.0040: real time    0.0008
    --------------------------------------------
      LOOP:  cpu time    0.0760: real time    0.0790

 eigenvalue-minimisations  :    72
 total energy-change (2. order) :-0.2782128E-03  (-0.5565691E-05)
 number of electron       8.0000111 magnetization 
 augmentation part        0.6969083 magnetization 

 Broyden mixing:
  rms(total) = 0.30193E-03    rms(broyden)= 0.30175E-03
  rms(prec ) = 0.52840E-03
  weight for this iteration     100.00

 eigenvalues of (default mixing * dielectric matrix)
  average eigenvalue GAMMA=   2.2035
  4.9225  3.2889  2.7963  2.3604  1.3320  1.0070  1.0070  0.9140

 Free energy of the ion-electron system (eV)
  ---------------------------------------------------
  alpha Z        PSCENC =         0.87564028
  Ewald energy   TEWEN  =       -13.80331150
  -Hartree energ DENC   =      -383.10604956
  -exchange      EXHF   =         0.00000000
  -V(xc)+E(xc)   XCENC  =        34.22003266
  PAW double counting   =       333.96857410     -336.10844738
  entropy T*S    EENTRO =        -0.00000000
  eigenvalues    EBANDS =      -107.47407465
  atomic energy  EATOM  =       457.22046137
  Solvation  Ediel_sol  =         0.00000000
  ---------------------------------------------------
  free energy    TOTEN  =       -14.20717469 eV

  energy without entropy =      -14.20717469  energy(sigma->0) =      -14.20717469


--------------------------------------------------------------------------------------------------------




----------------------------------------- Iteration    1(  14)  ---------------------------------------


    POTLOK:  cpu time    0.0160: real time    0.0157
    SETDIJ:  cpu time    0.0040: real time    0.0022
     EDDAV:  cpu time    0.0440: real time    0.0477
       DOS:  cpu time    0.0000: real time    0.0001
    --------------------------------------------
      LOOP:  cpu time    0.0680: real time    0.0715

 eigenvalue-minimisations  :    72
 total energy-change (2. order) :-0.3130408E-04  (-0.3003576E-06)
 number of electron       8.0000111 magnetization 
 augmentation part        0.6969083 magnetization 

 Free energy of the ion-electron system (eV)
  ---------------------------------------------------
  alpha Z        PSCENC =         0.87564028
  Ewald energy   TEWEN  =       -13.80331150
  -Hartree energ DENC   =      -383.09768558
  -exchange      EXHF   =         0.00000000
  -V(xc)+E(xc)   XCENC  =        34.21955415
  PAW double counting   =       333.92648680     -336.06632643
  entropy T*S    EENTRO =        -0.00000000
  eigenvalues    EBANDS =      -107.48202508
  atomic energy  EATOM  =       457.22046137
  Solvation  Ediel_sol  =         0.00000000
  ---------------------------------------------------
  free energy    TOTEN  =       -14.20720599 eV

  energy without entropy =      -14.20720599  energy(sigma->0) =      -14.20720599


--------------------------------------------------------------------------------------------------------




 average (electrostatic) potential at core
  the test charge radii are     0.7215  0.5201
  (the norm of the test charge is              1.0000)
       1 -80.2525       2 -44.5333       3 -44.5333
 
 
 
 E-fermi :  -6.3253     XC(G=0):  -1.7373     alpha+bet : -0.5081


 k-point     1 :       0.0000    0.0000    0.0000
  band No.  band energies     occupation 
      1     -25.1026      2.00000
      2     -12.8948      2.00000
      3      -8.8936      2.00000
      4      -6.8501      2.00000
      5      -1.2114      0.00000
      6       2.1816      0.00000
      7       2.2315      0.00000
      8       2.5876      0.00000
      9       2.9037      0.00000
     10       3.0559      0.00000
     11       3.4070      0.00000
     12       4.5398      0.00000
     13       5.6752      0.00000
     14       5.9202      0.00000
     15       6.2646      0.00000
     16       6.4708      0.00000
     17       6.5397      0.00000
     18       6.6214      0.00000


--------------------------------------------------------------------------------------------------------


 soft charge-density along one line, spin component           1
         0         1         2         3         4         5         6         7         8         9
 total charge-density along one line
 
 pseudopotential strength for first ion, spin component:           1
 13.753  -0.519  -0.000  -0.000  -0.125   0.000   0.000   0.006
 -0.519   0.118   0.000   0.000   0.015  -0.000  -0.000  -0.003
 -0.000   0.000 -10.524  -0.000   0.000   0.281   0.000  -0.000
 -0.000   0.000  -0.000 -10.277  -0.000   0.000   0.240   0.000
 -0.125   0.015   0.000  -0.000 -10.421  -0.000   0.000   0.264
  0.000  -0.000   0.281   0.000  -0.000   0.130  -0.000   0.000
  0.000  -0.000   0.000   0.240   0.000  -0.000   0.143  -0.000
  0.006  -0.003  -0.000   0.000   0.264   0.000  -0.000   0.136
 total augmentation occupancy for first ion, spin component:           1
  1.855   0.215   0.000   0.000  -0.163   0.000   0.000   0.057
  0.215   0.049   0.000   0.000   0.175   0.000   0.000   0.033
  0.000   0.000   1.428   0.000  -0.000   0.276   0.000   0.000
  0.000   0.000   0.000   1.813   0.000   0.000   0.113   0.000
 -0.163   0.175  -0.000   0.000   1.587   0.000   0.000   0.211
  0.000   0.000   0.276   0.000   0.000   0.053   0.000   0.000
  0.000   0.000   0.000   0.113   0.000   0.000   0.007   0.000
  0.057   0.033   0.000   0.000   0.211   0.000   0.000   0.031


------------------------ aborting loop because EDIFF is reached ----------------------------------------


    CHARGE:  cpu time    0.0040: real time    0.0066
    FORLOC:  cpu time    0.0000: real time    0.0012
    FORNL :  cpu time    0.0000: real time    0.0018
    FORHAR:  cpu time    0.0080: real time    0.0058
    MIXING:  cpu time    0.0000: real time    0.0008
    OFIELD:  cpu time    0.0000: real time    0.0000

 VOLUME and BASIS-vectors are now :
 -----------------------------------------------------------------------------
  energy-cutoff  :      400.00
  volume of cell :      256.07
      direct lattice vectors                 reciprocal lattice vectors
     6.350160000  0.000000000  0.000000000     0.157476347  0.000000000  0.000000000
     0.000000000  6.350160000  0.000000000     0.000000000  0.157476347  0.000000000
     0.000000000  0.000000000  6.350160000     0.000000000  0.000000000  0.157476347

  length of vectors
     6.350160000  6.350160000  6.350160000     0.157476347  0.157476347  0.157476347


 FORCES acting on ions
    electron-ion (+dipol)            ewald-force                    non-local-force                 convergence-correction
 -----------------------------------------------------------------------------------------------
   0.634E+02 0.109E-04 0.336E-15   -.114E+03 -.284E-13 0.131E-16   0.495E+02 0.432E-05 0.000E+00   -.354E-02 -.139E-04 -.641E-15
   -.513E+02 0.720E+02 -.101E-06   0.570E+02 -.799E+02 -.133E-16   -.515E+01 0.717E+01 0.000E+00   -.114E-02 0.110E-02 0.687E-15
   -.513E+02 -.720E+02 0.177E-06   0.570E+02 0.799E+02 -.117E-16   -.515E+01 -.717E+01 0.000E+00   -.113E-02 -.110E-02 0.463E-15
 -----------------------------------------------------------------------------------------------
   -.392E+02 0.109E-04 0.761E-07   0.000E+00 0.000E+00 -.120E-16   0.392E+02 0.419E-05 0.000E+00   -.581E-02 -.142E-04 0.509E-15
 
 
 POSITION                                       TOTAL-FORCE (eV/Angst)
 -----------------------------------------------------------------------------------
      0.00000      0.00000      0.00000        -1.091585      0.000001      0.000000
      0.58210      5.59343      0.00000         0.546068     -0.725822      0.000000
      0.58210      0.75673      0.00000         0.546068      0.725821      0.000000
 -----------------------------------------------------------------------------------
    total drift:                                0.000551      0.000001      0.000000


--------------------------------------------------------------------------------------------------------



  FREE ENERGIE OF THE ION-ELECTRON SYSTEM (eV)
  ---------------------------------------------------
  free  energy   TOTEN  =       -14.20720599 eV

  energy  without entropy=      -14.20720599  energy(sigma->0) =      -14.20720599
 


--------------------------------------------------------------------------------------------------------


    POTLOK:  cpu time    0.0200: real time    0.0196


--------------------------------------------------------------------------------------------------------


           RANDOM_SEED =        1252566022       1252566059
           RANDOM_SEED =        1252566022       1252566059

  ENERGY OF THE ELECTRON-ION-THERMOSTAT SYSTEM (eV)
  ---------------------------------------------------
% ion-electron   TOTEN  =       -14.207206  see above
  kinetic energy EKIN   =         0.551728
  kin. lattice  EKIN_LAT=         0.000000  (temperature 2134.17 K)
  nose potential ES     =         0.000000
  nose kinetic   EPS    =         0.000000
  ---------------------------------------------------
  total energy   ETOTAL =       -13.655478 eV

  maximum distance moved by ions :      0.12E-01

    WAVPRE:  cpu time    0.0040: real time    0.0036
 FEWALD executed in parallel
    FEWALD:  cpu time    0.0000: real time    0.0002
    ORTHCH:  cpu time    0.0040: real time    0.0018
     LOOP+:  cpu time    1.7041: real time    1.8116


----------------------------------------- Iteration    2(   1)  ---------------------------------------


    POTLOK:  cpu time    0.0160: real time    0.0159
    SETDIJ:  cpu time    0.0000: real time    0.0022
     EDDAV:  cpu time    0.0200: real time    0.0199
       DOS:  cpu time    0.0000: real time    0.0001
    CHARGE:  cpu time    0.0080: real time    0.0071
    MIXING:  cpu time    0.0000: real time    0.0005
    --------------------------------------------
      LOOP:  cpu time    0.0440: real time    0.0504

 eigenvalue-minimisations  :    36
 total energy-change (2. order) : 0.4482086E-01  (-0.4393873E+00)
 number of electron       8.0000096 magnetization 
 augmentation part        0.6677992 magnetization 

 Broyden mixing:
  rms(total) = 0.94658E-01    rms(broyden)= 0.94532E-01
  rms(prec ) = 0.14166E+00
  weight for this iteration     100.00

 Free energy of the ion-electron system (eV)
  ---------------------------------------------------
  alpha Z        PSCENC =         0.87564028
  Ewald energy   TEWEN  =       -22.47272453
  -Hartree energ DENC   =      -378.50762499
  -exchange      EXHF   =         0.00000000
  -V(xc)+E(xc)   XCENC  =        33.99215584
  PAW double counting   =       333.90405181     -336.04373675
  entropy T*S    EENTRO =        -0.00000000
  eigenvalues    EBANDS =      -103.13057684
  atomic energy  EATOM  =       457.22046137
  Solvation  Ediel_sol  =         0.00000000
  ---------------------------------------------------
  free energy    TOTEN  =       -14.16235382 eV

  energy without entropy =      -14.16235382  energy(sigma->0) =      -14.16235382


--------------------------------------------------------------------------------------------------------




----------------------------------------- Iteration    2(   2)  ---------------------------------------


    POTLOK:  cpu time    0.0160: real time    0.0149
    SETDIJ:  cpu time    0.0000: real time    0.0022
     EDDAV:  cpu time    0.0480: real time    0.0475
       DOS:  cpu time    0.0000: real time    0.0001
    CHARGE:  cpu time    0.0080: real time    0.0073
    MIXING:  cpu time    0.0000: real time    0.0005
    --------------------------------------------
      LOOP:  cpu time    0.0760: real time    0.0794

 eigenvalue-minimisations  :    72
 total energy-change (2. order) : 0.9686187E-02  (-0.1194218E-01)
 number of electron       8.0000098 magnetization 
 augmentation part        0.6782154 magnetization 

 Broyden mixing:
  rms(total) = 0.42022E-01    rms(broyden)= 0.41972E-01
  rms(prec ) = 0.54224E-01
  weight for this iteration     100.00

 eigenvalues of (default mixing * dielectric matrix)
  average eigenvalue GAMMA=   1.2065
  1.2065

 Free energy of the ion-electron system (eV)
  ---------------------------------------------------
  alpha Z        PSCENC =         0.87564028
  Ewald energy   TEWEN  =       -22.47272453
  -Hartree energ DENC   =      -376.50523808
  -exchange      EXHF   =         0.00000000
  -V(xc)+E(xc)   XCENC  =        33.87953776
  PAW double counting   =       326.92541144     -329.03036070
  entropy T*S    EENTRO =        -0.00000000
  eigenvalues    EBANDS =      -105.04539517
  atomic energy  EATOM  =       457.22046137
  Solvation  Ediel_sol  =         0.00000000
  ---------------------------------------------------
  free energy    TOTEN  =       -14.15266764 eV

  energy without entropy =      -14.15266764  energy(sigma->0) =      -14.15266764


--------------------------------------------------------------------------------------------------------




----------------------------------------- Iteration    2(   3)  ---------------------------------------


    POTLOK:  cpu time    0.0160: real time    0.0151
    SETDIJ:  cpu time    0.0040: real time    0.0022
     EDDAV:  cpu time    0.0320: real time    0.0316
       DOS:  cpu time    0.0000: real time    0.0001
    CHARGE:  cpu time    0.0080: real time    0.0071
    MIXING:  cpu time    0.0000: real time    0.0006
    --------------------------------------------
      LOOP:  cpu time    0.0600: real time    0.0632

 eigenvalue-minimisations  :    54
 total energy-change (2. order) : 0.3907732E-03  (-0.1625862E-03)
 number of electron       8.0000098 magnetization 
 augmentation part        0.6786921 magnetization 

 Broyden mixing:
  rms(total) = 0.21973E-01    rms(broyden)= 0.21969E-01
  rms(prec ) = 0.28546E-01
  weight for this iteration     100.00

 eigenvalues of (default mixing * dielectric matrix)
  average eigenvalue GAMMA=   1.6870
  1.0417  2.3324

 Free energy of the ion-electron system (eV)
  ---------------------------------------------------
  alpha Z        PSCENC =         0.87564028
  Ewald energy   TEWEN  =       -22.47272453
  -Hartree energ DENC   =      -376.38836574
  -exchange      EXHF   =         0.00000000
  -V(xc)+E(xc)   XCENC  =        33.87327591
  PAW double counting   =       324.49034814     -326.58962389
  entropy T*S    EENTRO =        -0.00000000
  eigenvalues    EBANDS =      -105.16128841
  atomic energy  EATOM  =       457.22046137
  Solvation  Ediel_sol  =         0.00000000
  ---------------------------------------------------
  free energy    TOTEN  =       -14.15227686 eV

  energy without entropy =      -14.15227686  energy(sigma->0) =      -14.15227686


--------------------------------------------------------------------------------------------------------




----------------------------------------- Iteration    2(   4)  ---------------------------------------


    POTLOK:  cpu time    0.0160: real time    0.0153
    SETDIJ:  cpu time    0.0040: real time    0.0022
     EDDAV:  cpu time    0.0480: real time    0.0473
       DOS:  cpu time    0.0000: real time    0.0001
    CHARGE:  cpu time    0.0080: real time    0.0071
    MIXING:  cpu time    0.0000: real time    0.0006
    --------------------------------------------
      LOOP:  cpu time    0.0760: real time    0.0813

 eigenvalue-minimisations  :    72
 total energy-change (2. order) :-0.2640887E-03  (-0.1056568E-03)
 number of electron       8.0000098 magnetization 
 augmentation part        0.6784631 magnetization 

 Broyden mixing:
  rms(total) = 0.28151E-02    rms(broyden)= 0.28135E-02
  rms(prec ) = 0.54563E-02
  weight for this iteration     100.00

 eigenvalues of (default mixing * dielectric matrix)
  average eigenvalue GAMMA=   1.6706
  2.4768  1.0733  1.4618

 Free energy of the ion-electron system (eV)
  ---------------------------------------------------
  alpha Z        PSCENC =         0.87564028
  Ewald energy   TEWEN  =       -22.47272453
  -Hartree energ DENC   =      -376.39446950
  -exchange      EXHF   =         0.00000000
  -V(xc)+E(xc)   XCENC  =        33.87394935
  PAW double counting   =       322.12537902     -324.22041958
  entropy T*S    EENTRO =        -0.00000000
  eigenvalues    EBANDS =      -105.16035736
  atomic energy  EATOM  =       457.22046137
  Solvation  Ediel_sol  =         0.00000000
  ---------------------------------------------------
  free energy    TOTEN  =       -14.15254095 eV

  energy without entropy =      -14.15254095  energy(sigma->0) =      -14.15254095


--------------------------------------------------------------------------------------------------------




----------------------------------------- Iteration    2(   5)  ---------------------------------------


    POTLOK:  cpu time    0.0160: real time    0.0156
    SETDIJ:  cpu time    0.0000: real time    0.0022
     EDDAV:  cpu time    0.0320: real time    0.0315
       DOS:  cpu time    0.0000: real time    0.0001
    CHARGE:  cpu time    0.0080: real time    0.0071
    MIXING:  cpu time    0.0000: real time    0.0007
    --------------------------------------------
      LOOP:  cpu time    0.0560: real time    0.0761

 eigenvalue-minimisations  :    54
 total energy-change (2. order) :-0.1734880E-03  (-0.1220199E-04)
 number of electron       8.0000098 magnetization 
 augmentation part        0.6787621 magnetization 

 Broyden mixing:
  rms(total) = 0.10868E-02    rms(broyden)= 0.10844E-02
  rms(prec ) = 0.24146E-02
  weight for this iteration     100.00

 eigenvalues of (default mixing * dielectric matrix)
  average eigenvalue GAMMA=   1.6158
  2.5115  2.0230  1.0101  0.9187

 Free energy of the ion-electron system (eV)
  ---------------------------------------------------
  alpha Z        PSCENC =         0.87564028
  Ewald energy   TEWEN  =       -22.47272453
  -Hartree energ DENC   =      -376.38582848
  -exchange      EXHF   =         0.00000000
  -V(xc)+E(xc)   XCENC  =        33.87322717
  PAW double counting   =       321.82101087     -323.91501765
  entropy T*S    EENTRO =        -0.00000000
  eigenvalues    EBANDS =      -105.16948346
  atomic energy  EATOM  =       457.22046137
  Solvation  Ediel_sol  =         0.00000000
  ---------------------------------------------------
  free energy    TOTEN  =       -14.15271444 eV

  energy without entropy =      -14.15271444  energy(sigma->0) =      -14.15271444


--------------------------------------------------------------------------------------------------------




----------------------------------------- Iteration    2(   6)  ---------------------------------------


    POTLOK:  cpu time    0.0160: real time    0.0156
    SETDIJ:  cpu time    0.0000: real time    0.0022
     EDDAV:  cpu time    0.0320: real time    0.0317
       DOS:  cpu time    0.0000: real time    0.0001
    --------------------------------------------
      LOOP:  cpu time    0.0520: real time    0.0576

 eigenvalue-minimisations  :    54
 total energy-change (2. order) :-0.9957160E-04  (-0.1833495E-05)
 number of electron       8.0000098 magnetization 
 augmentation part        0.6787621 magnetization 

 Free energy of the ion-electron system (eV)
  ---------------------------------------------------
  alpha Z        PSCENC =         0.87564028
  Ewald energy   TEWEN  =       -22.47272453
  -Hartree energ DENC   =      -376.41170122
  -exchange      EXHF   =         0.00000000
  -V(xc)+E(xc)   XCENC  =        33.87449810
  PAW double counting   =       321.85544994     -323.95009343
  entropy T*S    EENTRO =        -0.00000000
  eigenvalues    EBANDS =      -105.14434452
  atomic energy  EATOM  =       457.22046137
  Solvation  Ediel_sol  =         0.00000000
  ---------------------------------------------------
  free energy    TOTEN  =       -14.15281401 eV

  energy without entropy =      -14.15281401  energy(sigma->0) =      -14.15281401


--------------------------------------------------------------------------------------------------------




 average (electrostatic) potential at core
  the test charge radii are     0.7215  0.5201
  (the norm of the test charge is              1.0000)
       1 -80.1872       2 -43.7402       3 -44.1866
 
 
 
 E-fermi :  -6.2319     XC(G=0):  -1.7816     alpha+bet : -0.5081


 k-point     1 :       0.0000    0.0000    0.0000
  band No.  band energies     occupation 
      1     -24.5550      2.00000
      2     -12.5953      2.00000
      3      -8.6869      2.00000
      4      -6.7349      2.00000
      5      -1.3518      0.00000
      6       1.8976      0.00000
      7       2.1058      0.00000
      8       2.5384      0.00000
      9       2.8610      0.00000
     10       3.0313      0.00000
     11       3.3290      0.00000
     12       4.3679      0.00000
     13       5.6069      0.00000
     14       5.9007      0.00000
     15       6.0795      0.00000
     16       6.3810      0.00000
     17       6.4967      0.00000
     18       6.5947      0.00000


--------------------------------------------------------------------------------------------------------


 soft charge-density along one line, spin component           1
         0         1         2         3         4         5         6         7         8         9
 total charge-density along one line
 
 pseudopotential strength for first ion, spin component:           1
 13.746  -0.519  -0.012   0.000  -0.113   0.001  -0.000   0.006
 -0.519   0.118   0.001  -0.000   0.014  -0.000   0.000  -0.002
 -0.012   0.001 -10.515  -0.000  -0.000   0.283   0.000  -0.000
  0.000  -0.000  -0.000 -10.280  -0.000   0.000   0.243   0.000
 -0.113   0.014  -0.000  -0.000 -10.409  -0.000   0.000   0.265
  0.001  -0.000   0.283   0.000  -0.000   0.129  -0.000   0.000
 -0.000   0.000   0.000   0.243   0.000  -0.000   0.142  -0.000
  0.006  -0.002  -0.000   0.000   0.265   0.000  -0.000   0.135
 total augmentation occupancy for first ion, spin component:           1
  1.857   0.195  -0.001   0.000  -0.175   0.008   0.000   0.045
  0.195   0.042   0.015   0.000   0.163   0.004   0.000   0.028
 -0.001   0.015   1.380   0.000   0.027   0.261   0.000   0.003
  0.000   0.000   0.000   1.812   0.000   0.000   0.109   0.000
 -0.175   0.163   0.027   0.000   1.554   0.003   0.000   0.195
  0.008   0.004   0.261   0.000   0.003   0.049   0.000   0.001
  0.000   0.000   0.000   0.109   0.000   0.000   0.007   0.000
  0.045   0.028   0.003   0.000   0.195   0.001   0.000   0.027


------------------------ aborting loop because EDIFF is reached ----------------------------------------


    CHARGE:  cpu time    0.0040: real time    0.0067
    FORLOC:  cpu time    0.0040: real time    0.0012
    FORNL :  cpu time    0.0000: real time    0.0018
    FORHAR:  cpu time    0.0080: real time    0.0058
    MIXING:  cpu time    0.0000: real time    0.0007
    OFIELD:  cpu time    0.0000: real time    0.0000

 VOLUME and BASIS-vectors are now :
 -----------------------------------------------------------------------------
  energy-cutoff  :      400.00
  volume of cell :      256.07
      direct lattice vectors                 reciprocal lattice vectors
     6.350160000  0.000000000  0.000000000     0.157476347  0.000000000  0.000000000
     0.000000000  6.350160000  0.000000000     0.000000000  0.157476347  0.000000000
     0.000000000  0.000000000  6.350160000     0.000000000  0.000000000  0.157476347

  length of vectors
     6.350160000  6.350160000  6.350160000     0.157476347  0.157476347  0.157476347


 FORCES acting on ions
    electron-ion (+dipol)            ewald-force                    non-local-force                 convergence-correction
 -----------------------------------------------------------------------------------------------
   0.543E+02 0.588E+01 0.939E-05   -.100E+03 -.106E+02 -.285E-16   0.467E+02 0.332E+01 0.000E+00   0.123E-01 -.114E-01 -.699E-14
   -.480E+02 0.647E+02 -.631E-07   0.510E+02 -.684E+02 0.457E-17   -.406E+01 0.557E+01 0.000E+00   -.674E-03 -.118E-03 0.895E-16
   -.447E+02 -.726E+02 -.693E-07   0.490E+02 0.790E+02 0.120E-16   -.422E+01 -.692E+01 0.000E+00   0.581E-03 -.136E-03 -.731E-15
 -----------------------------------------------------------------------------------------------
   -.385E+02 -.197E+01 0.926E-05   0.000E+00 0.142E-13 -.120E-16   0.384E+02 0.198E+01 0.000E+00   0.122E-01 -.116E-01 -.763E-14
 
 
 POSITION                                       TOTAL-FORCE (eV/Angst)
 -----------------------------------------------------------------------------------
      0.00100      0.00815      0.00000         0.999656     -1.446101      0.000000
      0.63988      5.55903      0.00000        -1.103446      1.910411      0.000000
      0.54337      0.82226      0.00000         0.101862     -0.466046      0.000000
 -----------------------------------------------------------------------------------
    total drift:                               -0.001927     -0.001736      0.000009


--------------------------------------------------------------------------------------------------------



  FREE ENERGIE OF THE ION-ELECTRON SYSTEM (eV)
  ---------------------------------------------------
  free  energy   TOTEN  =       -14.15281401 eV

  energy  without entropy=      -14.15281401  energy(sigma->0) =      -14.15281401
 
 d Force =-0.4645130E-01[-0.175E+00, 0.818E-01]  d Energy =-0.5439198E-01 0.794E-02
 d Force = 0.8675185E+01[ 0.839E+01, 0.896E+01]  d Ewald  = 0.8669413E+01 0.577E-02


--------------------------------------------------------------------------------------------------------


    POTLOK:  cpu time    0.0200: real time    0.0196


--------------------------------------------------------------------------------------------------------


           RANDOM_SEED =        1252566022       1252566059

  ENERGY OF THE ELECTRON-ION-THERMOSTAT SYSTEM (eV)
  ---------------------------------------------------
% ion-electron   TOTEN  =       -14.152814  see above
  kinetic energy EKIN   =         0.509574
  kin. lattice  EKIN_LAT=         0.000000  (temperature 1971.11 K)
  nose potential ES     =         0.000000
  nose kinetic   EPS    =         0.000000
  ---------------------------------------------------
  total energy   ETOTAL =       -13.643240 eV

  maximum distance moved by ions :      0.11E-01

    WAVPRE:  cpu time    0.0080: real time    0.0083
 FEWALD executed in parallel
    FEWALD:  cpu time    0.0000: real time    0.0002
    ORTHCH:  cpu time    0.0040: real time    0.0018
 Prediction of Wavefunctions ALPHA= 0.847 BETA= 0.000
     LOOP+:  cpu time    0.4200: real time    0.4705


----------------------------------------- Iteration    3(   1)  ---------------------------------------


    POTLOK:  cpu time    0.0160: real time    0.0161
    SETDIJ:  cpu time    0.0040: real time    0.0022
     EDDAV:  cpu time    0.0200: real time    0.0202
       DOS:  cpu time    0.0000: real time    0.0001
    CHARGE:  cpu time    0.0080: real time    0.0072
    MIXING:  cpu time    0.0000: real time    0.0005
    --------------------------------------------
      LOOP:  cpu time    0.0480: real time    0.0497

 eigenvalue-minimisations  :    36
 total energy-change (2. order) : 0.1785291E+00  (-0.6643918E-01)
 number of electron       8.0000108 magnetization 
 augmentation part        0.6698260 magnetization 

 Broyden mixing:
  rms(total) = 0.27193E-01    rms(broyden)= 0.27133E-01
  rms(prec ) = 0.37513E-01
  weight for this iteration     100.00

 Free energy of the ion-electron system (eV)
  ---------------------------------------------------
  alpha Z        PSCENC =         0.87564028
  Ewald energy   TEWEN  =       -28.65161921
  -Hartree energ DENC   =      -371.21083531
  -exchange      EXHF   =         0.00000000
  -V(xc)+E(xc)   XCENC  =        33.60837322
  PAW double counting   =       312.18198466     -314.24109332
  entropy T*S    EENTRO =        -0.00000000
  eigenvalues    EBANDS =      -103.75709707
  atomic energy  EATOM  =       457.22046137
  Solvation  Ediel_sol  =         0.00000000
  ---------------------------------------------------
  free energy    TOTEN  =       -13.97418538 eV

  energy without entropy =      -13.97418538  energy(sigma->0) =      -13.97418538


--------------------------------------------------------------------------------------------------------




----------------------------------------- Iteration    3(   2)  ---------------------------------------


    POTLOK:  cpu time    0.0160: real time    0.0158
    SETDIJ:  cpu time    0.0040: real time    0.0022
     EDDAV:  cpu time    0.0480: real time    0.0475
       DOS:  cpu time    0.0000: real time    0.0001
    CHARGE:  cpu time    0.0080: real time    0.0072
    MIXING:  cpu time    0.0000: real time    0.0005
    --------------------------------------------
      LOOP:  cpu time    0.0760: real time    0.0802

 eigenvalue-minimisations  :    72
 total energy-change (2. order) :-0.4871118E-03  (-0.1736141E-02)
 number of electron       8.0000107 magnetization 
 augmentation part        0.6654211 magnetization 

 Broyden mixing:
  rms(total) = 0.11945E-01    rms(broyden)= 0.11901E-01
  rms(prec ) = 0.15667E-01
  weight for this iteration     100.00

 eigenvalues of (default mixing * dielectric matrix)
  average eigenvalue GAMMA=   1.0009
  1.0009

 Free energy of the ion-electron system (eV)
  ---------------------------------------------------
  alpha Z        PSCENC =         0.87564028
  Ewald energy   TEWEN  =       -28.65161921
  -Hartree energ DENC   =      -371.61889996
  -exchange      EXHF   =         0.00000000
  -V(xc)+E(xc)   XCENC  =        33.63031008
  PAW double counting   =       313.44205527     -315.51150238
  entropy T*S    EENTRO =        -0.00000000
  eigenvalues    EBANDS =      -103.36111793
  atomic energy  EATOM  =       457.22046137
  Solvation  Ediel_sol  =         0.00000000
  ---------------------------------------------------
  free energy    TOTEN  =       -13.97467249 eV

  energy without entropy =      -13.97467249  energy(sigma->0) =      -13.97467249


--------------------------------------------------------------------------------------------------------




----------------------------------------- Iteration    3(   3)  ---------------------------------------


    POTLOK:  cpu time    0.0160: real time    0.0158
    SETDIJ:  cpu time    0.0040: real time    0.0022
     EDDAV:  cpu time    0.0320: real time    0.0318
       DOS:  cpu time    0.0000: real time    0.0001
    --------------------------------------------
      LOOP:  cpu time    0.0520: real time    0.0556

 eigenvalue-minimisations  :    54
 total energy-change (2. order) : 0.3468124E-04  (-0.3374516E-04)
 number of electron       8.0000107 magnetization 
 augmentation part        0.6654211 magnetization 

 Free energy of the ion-electron system (eV)
  ---------------------------------------------------
  alpha Z        PSCENC =         0.87564028
  Ewald energy   TEWEN  =       -28.65161921
  -Hartree energ DENC   =      -371.53072521
  -exchange      EXHF   =         0.00000000
  -V(xc)+E(xc)   XCENC  =        33.62517677
  PAW double counting   =       313.57022690     -315.63756843
  entropy T*S    EENTRO =        -0.00000000
  eigenvalues    EBANDS =      -103.44623028
  atomic energy  EATOM  =       457.22046137
  Solvation  Ediel_sol  =         0.00000000
  ---------------------------------------------------
  free energy    TOTEN  =       -13.97463781 eV

  energy without entropy =      -13.97463781  energy(sigma->0) =      -13.97463781


--------------------------------------------------------------------------------------------------------




 average (electrostatic) potential at core
  the test charge radii are     0.7215  0.5201
  (the norm of the test charge is              1.0000)
       1 -80.1493       2 -43.4018       3 -43.9002
 
 
 
 E-fermi :  -6.1132     XC(G=0):  -1.8303     alpha+bet : -0.5081


 k-point     1 :       0.0000    0.0000    0.0000
  band No.  band energies     occupation 
      1     -24.1765      2.00000
      2     -12.3811      2.00000
      3      -8.5166      2.00000
      4      -6.6490      2.00000
      5      -1.4812      0.00000
      6       1.6306      0.00000
      7       1.9462      0.00000
      8       2.5108      0.00000
      9       2.8265      0.00000
     10       3.0019      0.00000
     11       3.2744      0.00000
     12       4.2404      0.00000
     13       5.5470      0.00000
     14       5.8906      0.00000
     15       5.9084      0.00000
     16       6.3302      0.00000
     17       6.4092      0.00000
     18       6.5374      0.00000


--------------------------------------------------------------------------------------------------------


 soft charge-density along one line, spin component           1
         0         1         2         3         4         5         6         7         8         9
 total charge-density along one line
 
 pseudopotential strength for first ion, spin component:           1
 13.744  -0.520  -0.017   0.000  -0.105   0.001  -0.000   0.005
 -0.520   0.118   0.002  -0.000   0.014  -0.000   0.000  -0.002
 -0.017   0.002 -10.510   0.000   0.005   0.284  -0.000  -0.001
  0.000  -0.000   0.000 -10.282   0.000  -0.000   0.245  -0.000
 -0.105   0.014   0.005   0.000 -10.403  -0.001  -0.000   0.266
  0.001  -0.000   0.284  -0.000  -0.001   0.129   0.000   0.000
 -0.000   0.000  -0.000   0.245  -0.000   0.000   0.141   0.000
  0.005  -0.002  -0.001  -0.000   0.266   0.000   0.000   0.134
 total augmentation occupancy for first ion, spin component:           1
  1.859   0.183  -0.009   0.000  -0.182   0.012   0.000   0.037
  0.183   0.038   0.024   0.000   0.153   0.005   0.000   0.025
 -0.009   0.024   1.347   0.000   0.042   0.249   0.000   0.002
  0.000   0.000   0.000   1.810   0.000   0.000   0.106   0.000
 -0.182   0.153   0.042   0.000   1.527   0.003   0.000   0.182
  0.012   0.005   0.249   0.000   0.003   0.046   0.000   0.000
  0.000   0.000   0.000   0.106   0.000   0.000   0.006   0.000
  0.037   0.025   0.002   0.000   0.182   0.000   0.000   0.024


------------------------ aborting loop because EDIFF is reached ----------------------------------------


    CHARGE:  cpu time    0.0080: real time    0.0067
    FORLOC:  cpu time    0.0000: real time    0.0012
    FORNL :  cpu time    0.0040: real time    0.0018
    FORHAR:  cpu time    0.0040: real time    0.0058
    MIXING:  cpu time    0.0000: real time    0.0006
    OFIELD:  cpu time    0.0000: real time    0.0000

 VOLUME and BASIS-vectors are now :
 -----------------------------------------------------------------------------
  energy-cutoff  :      400.00
  volume of cell :      256.07
      direct lattice vectors                 reciprocal lattice vectors
     6.350160000  0.000000000  0.000000000     0.157476347  0.000000000  0.000000000
     0.000000000  6.350160000  0.000000000     0.000000000  0.157476347  0.000000000
     0.000000000  0.000000000  6.350160000     0.000000000  0.000000000  0.157476347

  length of vectors
     6.350160000  6.350160000  6.350160000     0.157476347  0.157476347  0.157476347


 FORCES acting on ions
    electron-ion (+dipol)            ewald-force                    non-local-force                 convergence-correction
 -----------------------------------------------------------------------------------------------
   0.474E+02 0.878E+01 0.168E-04   -.897E+02 -.162E+02 -.301E-16   0.445E+02 0.566E+01 0.000E+00   -.111E+00 0.160E+00 0.499E-13
   -.462E+02 0.597E+02 -.131E-07   0.478E+02 -.613E+02 0.104E-16   -.349E+01 0.469E+01 0.000E+00   0.735E-02 -.143E-01 0.271E-14
   -.387E+02 -.725E+02 0.807E-08   0.419E+02 0.775E+02 0.777E-17   -.340E+01 -.657E+01 0.000E+00   -.361E-02 -.425E-02 0.373E-14
 -----------------------------------------------------------------------------------------------
   -.375E+02 -.393E+01 0.168E-04   -.711E-14 0.000E+00 -.120E-16   0.376E+02 0.378E+01 0.000E+00   -.107E+00 0.141E+00 0.563E-13
 
 
 POSITION                                       TOTAL-FORCE (eV/Angst)
 -----------------------------------------------------------------------------------
[...]
 -0.520   0.118  -0.015  -0.000  -0.006   0.003   0.000   0.001
  0.130  -0.015 -10.473  -0.000   0.040   0.270   0.000  -0.006
  0.000  -0.000  -0.000 -10.280  -0.000   0.000   0.238   0.000
  0.049  -0.006   0.040  -0.000 -10.508  -0.006   0.000   0.276
 -0.007   0.003   0.270   0.000  -0.006   0.134  -0.000   0.002
 -0.000   0.000   0.000   0.238   0.000  -0.000   0.143  -0.000
 -0.002   0.001  -0.006   0.000   0.276   0.002  -0.000   0.132
 total augmentation occupancy for first ion, spin component:           1
  1.859   0.229   0.132   0.000   0.076  -0.064   0.000  -0.021
  0.229   0.056  -0.176   0.000  -0.071  -0.036   0.000  -0.014
  0.132  -0.176   1.601   0.000   0.034   0.243   0.000  -0.024
  0.000   0.000   0.000   1.816   0.000   0.000   0.116   0.000
  0.076  -0.071   0.034   0.000   1.474  -0.024   0.000   0.266
 -0.064  -0.036   0.243   0.000  -0.024   0.041   0.000  -0.007
  0.000   0.000   0.000   0.116   0.000   0.000   0.007   0.000
 -0.021  -0.014  -0.024   0.000   0.266  -0.007   0.000   0.049


------------------------ aborting loop because EDIFF is reached ----------------------------------------


    CHARGE:  cpu time    0.0080: real time    0.0082
    FORLOC:  cpu time    0.0040: real time    0.0012
    FORNL :  cpu time    0.0000: real time    0.0018
    FORHAR:  cpu time    0.0040: real time    0.0058
    MIXING:  cpu time    0.0040: real time    0.0006
    OFIELD:  cpu time    0.0000: real time    0.0000

 VOLUME and BASIS-vectors are now :
 -----------------------------------------------------------------------------
  energy-cutoff  :      400.00
  volume of cell :      256.07
      direct lattice vectors                 reciprocal lattice vectors
     6.350160000  0.000000000  0.000000000     0.157476347  0.000000000  0.000000000
     0.000000000  6.350160000  0.000000000     0.000000000  0.157476347  0.000000000
     0.000000000  0.000000000  6.350160000     0.000000000  0.000000000  0.157476347

  length of vectors
     6.350160000  6.350160000  6.350160000     0.157476347  0.157476347  0.157476347


 FORCES acting on ions
    electron-ion (+dipol)            ewald-force                    non-local-force                 convergence-correction
 -----------------------------------------------------------------------------------------------
   -.271E+02 -.687E+02 -.194E-05   0.471E+02 0.121E+03 -.307E-17   -.212E+02 -.483E+02 0.000E+00   -.515E-01 0.668E-01 -.955E-13
   0.875E+02 0.193E+02 -.513E-06   -.977E+02 -.211E+02 -.265E-17   0.877E+01 0.207E+01 0.000E+00   -.261E-02 0.469E-02 -.819E-14
   -.431E+02 0.856E+02 -.161E-06   0.506E+02 -.100E+03 -.627E-17   -.476E+01 0.997E+01 0.000E+00   -.148E-02 -.501E-03 -.499E-14
 -----------------------------------------------------------------------------------------------
   0.173E+02 0.362E+02 -.262E-05   0.000E+00 0.000E+00 -.120E-16   -.172E+02 -.363E+02 0.000E+00   -.555E-01 0.710E-01 -.109E-12
 
 
 POSITION                                       TOTAL-FORCE (eV/Angst)
 -----------------------------------------------------------------------------------
      0.28961      0.93727      0.00000        -1.315172      4.489928      0.000000
      5.72147      0.69712      0.00000        -1.461421      0.210705      0.000000
      0.65882      0.12431      0.00000         2.791555     -4.718524      0.000000
 -----------------------------------------------------------------------------------
    total drift:                                0.014962     -0.017890     -0.000003


--------------------------------------------------------------------------------------------------------



  FREE ENERGIE OF THE ION-ELECTRON SYSTEM (eV)
  ---------------------------------------------------
  free  energy   TOTEN  =       -13.99559318 eV

  energy  without entropy=      -13.99559318  energy(sigma->0) =      -13.99559318
 
 d Force =-0.4489842E-01[-0.562E-01,-0.336E-01]  d Energy =-0.4417930E-01-0.719E-03
 d Force = 0.2868073E+00[ 0.520E+00, 0.535E-01]  d Ewald  = 0.2917913E+00-0.498E-02


--------------------------------------------------------------------------------------------------------


    POTLOK:  cpu time    0.0160: real time    0.0191


--------------------------------------------------------------------------------------------------------


           RANDOM_SEED =        1252566022       1252566059

  ENERGY OF THE ELECTRON-ION-THERMOSTAT SYSTEM (eV)
  ---------------------------------------------------
% ion-electron   TOTEN  =       -13.995593  see above
  kinetic energy EKIN   =         0.361879
  kin. lattice  EKIN_LAT=         0.000000  (temperature 1399.80 K)
  nose potential ES     =         0.000000
  nose kinetic   EPS    =         0.000000
  ---------------------------------------------------
  total energy   ETOTAL =       -13.633714 eV

  maximum distance moved by ions :      0.90E-02

    WAVPRE:  cpu time    0.0040: real time    0.0053
 FEWALD executed in parallel
    FEWALD:  cpu time    0.0000: real time    0.0002
    ORTHCH:  cpu time    0.0040: real time    0.0018
 Prediction of Wavefunctions ALPHA= 2.045 BETA=-1.085
     LOOP+:  cpu time    0.2920: real time    0.3144


----------------------------------------- Iteration  100(   1)  ---------------------------------------


    POTLOK:  cpu time    0.0160: real time    0.0148
    SETDIJ:  cpu time    0.0040: real time    0.0022
     EDDAV:  cpu time    0.0320: real time    0.0319
       DOS:  cpu time    0.0000: real time    0.0001
    CHARGE:  cpu time    0.0040: real time    0.0072
    MIXING:  cpu time    0.0040: real time    0.0005
    --------------------------------------------
      LOOP:  cpu time    0.0600: real time    0.0612

 eigenvalue-minimisations  :    54
 total energy-change (2. order) :-0.1636425E+00  (-0.4068364E-01)
 number of electron       8.0000041 magnetization 
 augmentation part        0.6907814 magnetization 

 Broyden mixing:
  rms(total) = 0.21318E-01    rms(broyden)= 0.21166E-01
  rms(prec ) = 0.26060E-01
  weight for this iteration     100.00

 Free energy of the ion-electron system (eV)
  ---------------------------------------------------
  alpha Z        PSCENC =         0.87564028
  Ewald energy   TEWEN  =       -14.38452146
  -Hartree energ DENC   =      -382.38319966
  -exchange      EXHF   =         0.00000000
  -V(xc)+E(xc)   XCENC  =        34.18264324
  PAW double counting   =       331.61898597     -333.72383318
  entropy T*S    EENTRO =        -0.00000000
  eigenvalues    EBANDS =      -107.56535150
  atomic energy  EATOM  =       457.22046137
  Solvation  Ediel_sol  =         0.00000000
  ---------------------------------------------------
  free energy    TOTEN  =       -14.15917495 eV

  energy without entropy =      -14.15917495  energy(sigma->0) =      -14.15917495


--------------------------------------------------------------------------------------------------------




----------------------------------------- Iteration  100(   2)  ---------------------------------------


    POTLOK:  cpu time    0.0120: real time    0.0149
    SETDIJ:  cpu time    0.0040: real time    0.0022
     EDDAV:  cpu time    0.0200: real time    0.0202
       DOS:  cpu time    0.0000: real time    0.0001
    CHARGE:  cpu time    0.0080: real time    0.0071
    MIXING:  cpu time    0.0000: real time    0.0005
    --------------------------------------------
      LOOP:  cpu time    0.0440: real time    0.0494

 eigenvalue-minimisations  :    36
 total energy-change (2. order) :-0.6713760E-03  (-0.7827070E-03)
 number of electron       8.0000041 magnetization 
 augmentation part        0.6898063 magnetization 

 Broyden mixing:
  rms(total) = 0.12923E-01    rms(broyden)= 0.12904E-01
  rms(prec ) = 0.15816E-01
  weight for this iteration     100.00

 eigenvalues of (default mixing * dielectric matrix)
  average eigenvalue GAMMA=   1.9811
  1.9811

 Free energy of the ion-electron system (eV)
  ---------------------------------------------------
  alpha Z        PSCENC =         0.87564028
  Ewald energy   TEWEN  =       -14.38452146
  -Hartree energ DENC   =      -382.41942236
  -exchange      EXHF   =         0.00000000
  -V(xc)+E(xc)   XCENC  =        34.18442944
  PAW double counting   =       331.84188250     -333.95038374
  entropy T*S    EENTRO =        -0.00000000
  eigenvalues    EBANDS =      -107.52793236
  atomic energy  EATOM  =       457.22046137
  Solvation  Ediel_sol  =         0.00000000
  ---------------------------------------------------
  free energy    TOTEN  =       -14.15984632 eV

  energy without entropy =      -14.15984632  energy(sigma->0) =      -14.15984632


--------------------------------------------------------------------------------------------------------




----------------------------------------- Iteration  100(   3)  ---------------------------------------


    POTLOK:  cpu time    0.0160: real time    0.0152
    SETDIJ:  cpu time    0.0040: real time    0.0022
     EDDAV:  cpu time    0.0480: real time    0.0479
       DOS:  cpu time    0.0000: real time    0.0001
    CHARGE:  cpu time    0.0040: real time    0.0071
    MIXING:  cpu time    0.0040: real time    0.0006
    --------------------------------------------
      LOOP:  cpu time    0.0800: real time    0.0785

 eigenvalue-minimisations  :    72
 total energy-change (2. order) :-0.1799104E-03  (-0.4412794E-04)
 number of electron       8.0000041 magnetization 
 augmentation part        0.6901945 magnetization 

 Broyden mixing:
  rms(total) = 0.28085E-02    rms(broyden)= 0.28031E-02
  rms(prec ) = 0.38684E-02
  weight for this iteration     100.00

 eigenvalues of (default mixing * dielectric matrix)
  average eigenvalue GAMMA=   1.5971
  0.9053  2.2888

 Free energy of the ion-electron system (eV)
  ---------------------------------------------------
  alpha Z        PSCENC =         0.87564028
  Ewald energy   TEWEN  =       -14.38452146
  -Hartree energ DENC   =      -382.37710030
  -exchange      EXHF   =         0.00000000
  -V(xc)+E(xc)   XCENC  =        34.18189605
  PAW double counting   =       331.93582362     -334.04310290
  entropy T*S    EENTRO =        -0.00000000
  eigenvalues    EBANDS =      -107.56912288
  atomic energy  EATOM  =       457.22046137
  Solvation  Ediel_sol  =         0.00000000
  ---------------------------------------------------
  free energy    TOTEN  =       -14.16002623 eV

  energy without entropy =      -14.16002623  energy(sigma->0) =      -14.16002623


--------------------------------------------------------------------------------------------------------




----------------------------------------- Iteration  100(   4)  ---------------------------------------


    POTLOK:  cpu time    0.0160: real time    0.0153
    SETDIJ:  cpu time    0.0000: real time    0.0022
     EDDAV:  cpu time    0.0480: real time    0.0479
       DOS:  cpu time    0.0000: real time    0.0001
    --------------------------------------------
      LOOP:  cpu time    0.0640: real time    0.0715

 eigenvalue-minimisations  :    72
 total energy-change (2. order) :-0.5701652E-04  (-0.4346723E-05)
 number of electron       8.0000041 magnetization 
 augmentation part        0.6901945 magnetization 

 Free energy of the ion-electron system (eV)
  ---------------------------------------------------
  alpha Z        PSCENC =         0.87564028
  Ewald energy   TEWEN  =       -14.38452146
  -Hartree energ DENC   =      -382.40840316
  -exchange      EXHF   =         0.00000000
  -V(xc)+E(xc)   XCENC  =        34.18363868
  PAW double counting   =       332.03012026     -334.13775096
  entropy T*S    EENTRO =        -0.00000000
  eigenvalues    EBANDS =      -107.53926827
  atomic energy  EATOM  =       457.22046137
  Solvation  Ediel_sol  =         0.00000000
  ---------------------------------------------------
  free energy    TOTEN  =       -14.16008325 eV

  energy without entropy =      -14.16008325  energy(sigma->0) =      -14.16008325


--------------------------------------------------------------------------------------------------------




 average (electrostatic) potential at core
  the test charge radii are     0.7215  0.5201
  (the norm of the test charge is              1.0000)
       1 -80.3011       2 -44.2089       3 -44.8131
 
 
 
 E-fermi :  -6.3313     XC(G=0):  -1.7186     alpha+bet : -0.5081


 k-point     1 :       0.0000    0.0000    0.0000
  band No.  band energies     occupation 
      1     -25.1889      2.00000
      2     -12.4678      2.00000
      3      -9.2425      2.00000
      4      -6.8704      2.00000
      5      -1.2150      0.00000
      6       1.9374      0.00000
      7       2.2440      0.00000
      8       2.8065      0.00000
      9       2.9117      0.00000
     10       3.0764      0.00000
     11       3.3394      0.00000
     12       4.8099      0.00000
     13       5.6949      0.00000
     14       5.9357      0.00000
     15       6.0312      0.00000
     16       6.2370      0.00000
     17       6.6397      0.00000
     18       6.6770      0.00000


--------------------------------------------------------------------------------------------------------


 soft charge-density along one line, spin component           1
         0         1         2         3         4         5         6         7         8         9
 total charge-density along one line
 
 pseudopotential strength for first ion, spin component:           1
 13.756  -0.520   0.121   0.000   0.043  -0.006  -0.000  -0.002
 -0.520   0.118  -0.015  -0.000  -0.006   0.002   0.000   0.001
  0.121  -0.015 -10.468   0.000   0.028   0.273  -0.000  -0.005
  0.000  -0.000   0.000 -10.290   0.000  -0.000   0.244  -0.000
  0.043  -0.006   0.028   0.000 -10.505  -0.005  -0.000   0.280
 -0.006   0.002   0.273  -0.000  -0.005   0.133   0.000   0.001
 -0.000   0.000  -0.000   0.244  -0.000   0.000   0.142   0.000
 -0.002   0.001  -0.005  -0.000   0.280   0.001   0.000   0.131
 total augmentation occupancy for first ion, spin component:           1
  1.865   0.206   0.151   0.000   0.072  -0.056   0.000  -0.017
  0.206   0.049  -0.171   0.000  -0.063  -0.034   0.000  -0.012
  0.151  -0.171   1.554   0.000   0.031   0.232   0.000  -0.018
  0.000   0.000   0.000   1.814   0.000   0.000   0.112   0.000
  0.072  -0.063   0.031   0.000   1.435  -0.018   0.000   0.252
 -0.056  -0.034   0.232   0.000  -0.018   0.038   0.000  -0.006
  0.000   0.000   0.000   0.112   0.000   0.000   0.007   0.000
 -0.017  -0.012  -0.018   0.000   0.252  -0.006   0.000   0.045


------------------------ aborting loop because EDIFF is reached ----------------------------------------


    CHARGE:  cpu time    0.0080: real time    0.0065
    FORLOC:  cpu time    0.0000: real time    0.0012
    FORNL :  cpu time    0.0000: real time    0.0017
    FORHAR:  cpu time    0.0080: real time    0.0057
    MIXING:  cpu time    0.0000: real time    0.0006
    OFIELD:  cpu time    0.0000: real time    0.0000

 VOLUME and BASIS-vectors are now :
 -----------------------------------------------------------------------------
  energy-cutoff  :      400.00
  volume of cell :      256.07
      direct lattice vectors                 reciprocal lattice vectors
     6.350160000  0.000000000  0.000000000     0.157476347  0.000000000  0.000000000
     0.000000000  6.350160000  0.000000000     0.000000000  0.157476347  0.000000000
     0.000000000  0.000000000  6.350160000     0.000000000  0.000000000  0.157476347

  length of vectors
     6.350160000  6.350160000  6.350160000     0.157476347  0.157476347  0.157476347


 FORCES acting on ions
    electron-ion (+dipol)            ewald-force                    non-local-force                 convergence-correction
 -----------------------------------------------------------------------------------------------
   -.236E+02 -.656E+02 -.192E-04   0.409E+02 0.115E+03 -.177E-17   -.188E+02 -.481E+02 0.000E+00   -.495E-01 -.311E-02 -.878E-13
   0.820E+02 0.237E+02 -.148E-06   -.895E+02 -.254E+02 0.291E-17   0.761E+01 0.233E+01 0.000E+00   -.103E-02 -.257E-03 -.379E-14
   -.429E+02 0.794E+02 -.109E-06   0.486E+02 -.893E+02 -.131E-16   -.428E+01 0.833E+01 0.000E+00   -.185E-02 -.261E-02 -.791E-14
 -----------------------------------------------------------------------------------------------
   0.155E+02 0.374E+02 -.195E-04   0.000E+00 0.142E-13 -.120E-16   -.155E+02 -.374E+02 0.000E+00   -.524E-01 -.598E-02 -.995E-13
 
 
 POSITION                                       TOTAL-FORCE (eV/Angst)
 -----------------------------------------------------------------------------------
      0.29008      0.95180      0.00000        -1.556347      1.022971      0.000000
      5.70746      0.64182      0.00000         0.110533      0.633644      0.000000
      0.70262      0.10899      0.00000         1.450545     -1.656508      0.000000
 -----------------------------------------------------------------------------------
    total drift:                                0.004731      0.000107     -0.000019


--------------------------------------------------------------------------------------------------------



  FREE ENERGIE OF THE ION-ELECTRON SYSTEM (eV)
  ---------------------------------------------------
  free  energy   TOTEN  =       -14.16008325 eV

  energy  without entropy=      -14.16008325  energy(sigma->0) =      -14.16008325
 
 d Force = 0.1672272E+00[ 0.665E-01, 0.268E+00]  d Energy = 0.1644901E+00 0.274E-02
 d Force = 0.7959333E+01[ 0.784E+01, 0.808E+01]  d Ewald  = 0.7964739E+01-0.541E-02


--------------------------------------------------------------------------------------------------------


    POTLOK:  cpu time    0.0200: real time    0.0192


--------------------------------------------------------------------------------------------------------


           RANDOM_SEED =        1252566022       1252566059

  ENERGY OF THE ELECTRON-ION-THERMOSTAT SYSTEM (eV)
  ---------------------------------------------------
% ion-electron   TOTEN  =       -14.160083  see above
  kinetic energy EKIN   =         0.495183
  kin. lattice  EKIN_LAT=         0.000000  (temperature 1915.44 K)
  nose potential ES     =         0.000000
  nose kinetic   EPS    =         0.000000
  ---------------------------------------------------
  total energy   ETOTAL =       -13.664900 eV

  maximum distance moved by ions :      0.10E-01


 mean value of Nose-termostat <S>:     1.000 mean value of <T> :  1598.885
 mean temperature <T/S>/<1/S>  :  1598.885

    WAVPRE:  cpu time    0.0080: real time    0.0055
 FEWALD executed in parallel
    FEWALD:  cpu time    0.0000: real time    0.0002
    ORTHCH:  cpu time    0.0000: real time    0.0018
 Prediction of Wavefunctions ALPHA= 1.350 BETA=-0.401
    POTLOK:  cpu time    0.0200: real time    0.0179
    EDDIAG:  cpu time    0.0040: real time    0.0042
 writing wavefunctions
     LOOP+:  cpu time    0.3480: real time    0.3782
    4ORBIT:  cpu time    0.0000: real time    0.0000

 total amount of memory used by VASP on root node    34018. kBytes
========================================================================

   base      :      30000. kBytes
   nonl-proj :        826. kBytes
   fftplans  :        693. kBytes
   grid      :       2265. kBytes
   one-center:          9. kBytes
   wavefun   :        225. kBytes
 
  
  
 General timing and accounting informations for this job:
 ========================================================
  
                  Total CPU time used (sec):       38.302
                            User time (sec):       31.162
                          System time (sec):        7.140
                         Elapsed time (sec):       41.031
  
                   Maximum memory used (kb):       31632.
                   Average memory used (kb):           0.
  
                          Minor page faults:         9339
                          Major page faults:            0
                 Voluntary context switches:         8583
