<?xml version="1.0" encoding="ISO-8859-1"?>
<modeling>
 <generator>
  <i name="program" type="string">vasp </i>
  <i name="version" type="string">5.4.1  </i>
  <i name="subversion" type="string">24Jun15 (build Apr 04 2016 10:44:54) complex                          parallel </i>
  <i name="platform" type="string">Titan </i>
  <i name="date" type="string">2018 12 04 </i>
  <i name="time" type="string">13:37:08 </i>
 </generator>
 <incar>
  <i type="string" name="PREC">normal    ! standard precision</i>
  <i type="int" name="IBRION">     0</i>
  <i type="int" name="NSW">   100</i>
  <i name="ENMAX">    400.00000000</i>
  <i name="POTIM">      1.00000000</i>
  <i name="TEBEG">   2000.00000000</i>
  <i name="TEEND">   2000.00000000</i>
  <i name="SMASS">     -3.00000000</i>
  <i type="int" name="ISMEAR">     0</i>
  <i name="SIGMA">      0.10000000</i>
  <v type="int" name="KPOINT_BSE">    -1     0     0     0</v>
 </incar>
 <kpoints>
  <varray name="kpointlist" >
   <v>       0.00000000       0.00000000       0.00000000 </v>
  </varray>
  <varray name="weights" >
   <v>       1.00000000 </v>
  </varray>
 </kpoints>
 <parameters>
  <separator name="general" >
   <i type="string" name="SYSTEM">unknown system</i>
   <i type="logical" name="LCOMPAT"> F  </i>
  </separator>
  <separator name="electronic" >
   <i type="string" name="PREC">normal</i>
   <i name="ENMAX">    400.00000000</i>
   <i name="ENAUG">    605.39200000</i>
   <i name="EDIFF">      0.00010000</i>
   <i type="int" name="IALGO">    38</i>
   <i type="int" name="IWAVPR">    12</i>
   <i type="int" name="NBANDS">    18</i>
   <i name="NELECT">      8.00000000</i>
   <i type="int" name="TURBO">     0</i>
   <i type="int" name="IRESTART">     0</i>
   <i type="int" name="NREBOOT">     0</i>
   <i type="int" name="NMIN">     0</i>
   <i name="EREF">      0.00000000</i>
   <separator name="electronic smearing" >
    <i type="int" name="ISMEAR">     0</i>
    <i name="SIGMA">      0.10000000</i>
    <i name="KSPACING">      0.50000000</i>
    <i type="logical" name="KGAMMA"> T  </i>
   </separator>
   <separator name="electronic projectors" >
    <i type="logical" name="LREAL"> F  </i>
    <v name="ROPT">      0.00000000      0.00000000</v>
    <i type="int" name="LMAXPAW">  -100</i>
    <i type="int" name="LMAXMIX">     2</i>
    <i type="logical" name="NLSPLINE"> F  </i>
   </separator>
   <separator name="electronic startup" >
    <i type="int" name="ISTART">     0</i>
    <i type="int" name="ICHARG">     2</i>
    <i type="int" name="INIWAV">     1</i>
   </separator>
   <separator name="electronic spin" >
    <i type="int" name="ISPIN">     1</i>
    <i type="logical" name="LNONCOLLINEAR"> F  </i>
    <v name="MAGMOM">      1.00000000      1.00000000      1.00000000</v>
    <i name="NUPDOWN">     -1.00000000</i>
    <i type="logical" name="LSORBIT"> F  </i>
    <v name="SAXIS">      0.00000000      0.00000000      1.00000000</v>
    <i type="logical" name="LSPIRAL"> F  </i>
    <v name="QSPIRAL">      0.00000000      0.00000000      0.00000000</v>
    <i type="logical" name="LZEROZ"> F  </i>
   </separator>
   <separator name="electronic exchange-correlation" >
    <i type="logical" name="LASPH"> F  </i>
    <i type="logical" name="LMETAGGA"> F  </i>
   </separator>
   <separator name="electronic convergence" >
    <i type="int" name="NELM">    60</i>
    <i type="int" name="NELMDL">    -5</i>
    <i type="int" name="NELMIN">     2</i>
    <i name="ENINI">    400.00000000</i>
    <separator name="electronic convergence detail" >
     <i type="logical" name="LDIAG"> T  </i>
     <i type="logical" name="LSUBROT"> F  </i>
     <i name="WEIMIN">      0.00100000</i>
     <i name="EBREAK">      0.00000139</i>
     <i name="DEPER">      0.30000000</i>
     <i type="int" name="NRMM">     4</i>
     <i name="TIME">      0.40000000</i>
    </separator>
   </separator>
   <separator name="electronic mixer" >
    <i name="AMIX">      0.40000000</i>
    <i name="BMIX">      1.00000000</i>
    <i name="AMIN">      0.10000000</i>
    <i name="AMIX_MAG">      1.60000000</i>
    <i name="BMIX_MAG">      1.00000000</i>
    <separator name="electronic mixer details" >
     <i type="int" name="IMIX">     4</i>
     <i type="logical" name="MIXFIRST"> F  </i>
     <i type="int" name="MAXMIX">   -45</i>
     <i name="WC">    100.00000000</i>
     <i type="int" name="INIMIX">     1</i>
     <i type="int" name="MIXPRE">     1</i>
     <i type="int" name="MREMOVE">     5</i>
    </separator>
   </separator>
   <separator name="electronic dipolcorrection" >
    <i type="logical" name="LDIPOL"> F  </i>
    <i type="logical" name="LMONO"> F  </i>
    <i type="int" name="IDIPOL">     0</i>
    <i name="EPSILON">      1.00000000</i>
    <v name="DIPOL">   -100.00000000   -100.00000000   -100.00000000</v>
    <i name="EFIELD">      0.00000000</i>
   </separator>
  </separator>
  <separator name="grids" >
   <i type="int" name="NGX">    32</i>
   <i type="int" name="NGY">    32</i>
   <i type="int" name="NGZ">    32</i>
   <i type="int" name="NGXF">    64</i>
   <i type="int" name="NGYF">    64</i>
   <i type="int" name="NGZF">    64</i>
   <i type="logical" name="ADDGRID"> F  </i>
  </separator>
  <separator name="ionic" >
   <i type="int" name="NSW">   100</i>
   <i type="int" name="IBRION">     0</i>
   <i type="int" name="ISIF">     0</i>
   <i name="PSTRESS">      0.00000000</i>
   <i name="EDIFFG">      0.00100000</i>
   <i type="int" name="NFREE">     0</i>
   <i name="POTIM">      1.00000000</i>
   <i name="SMASS">     -3.00000000</i>
   <i name="SCALEE">      1.00000000</i>
  </separator>
  <separator name="ionic md" >
   <i name="TEBEG">   2000.00000000</i>
   <i name="TEEND">   2000.00000000</i>
   <i type="int" name="NBLOCK">     1</i>
   <i type="int" name="KBLOCK">   100</i>
   <i type="int" name="NPACO">   256</i>
   <i name="APACO">     16.00000000</i>
  </separator>
  <separator name="symmetry" >
   <i type="int" name="ISYM">     2</i>
   <i name="SYMPREC">      0.00001000</i>
  </separator>
  <separator name="dos" >
   <i type="logical" name="LORBIT"> F  </i>
   <v name="RWIGS">     -1.00000000     -1.00000000</v>
   <i type="int" name="NEDOS">   301</i>
   <i name="EMIN">     10.00000000</i>
   <i name="EMAX">    -10.00000000</i>
   <i name="EFERMI">      0.00000000</i>
  </separator>
  <separator name="writing" >
   <i type="int" name="NWRITE">     2</i>
   <i type="logical" name="LWAVE"> T  </i>
   <i type="logical" name="LCHARG"> T  </i>
   <i type="logical" name="LPARD"> F  </i>
   <i type="logical" name="LVTOT"> F  </i>
   <i type="logical" name="LVHAR"> F  </i>
   <i type="logical" name="LELF"> F  </i>
   <i type="logical" name="LOPTICS"> F  </i>
   <v name="STM">      0.00000000      0.00000000      0.00000000      0.00000000      0.00000000      0.00000000      0.00000000</v>
  </separator>
  <separator name="performance" >
   <i type="int" name="NPAR">    18</i>
   <i type="int" name="NSIM">     4</i>
   <i type="int" name="NBLK">    -1</i>
   <i type="logical" name="LPLANE"> T  </i>
   <i type="logical" name="LSCALAPACK"> T  </i>
   <i type="logical" name="LSCAAWARE"> F  </i>
   <i type="logical" name="LSCALU"> F  </i>
   <i type="logical" name="LASYNC"> F  </i>
   <i type="logical" name="LORBITALREAL"> F  </i>
  </separator>
  <separator name="miscellaneous" >
   <i type="int" name="IDIOT">     3</i>
   <i type="logical" name="LMUSIC"> F  </i>
   <v name="POMASS">     16.00000000      1.00000000</v>
   <v name="DARWINR">      0.00000000      0.00000000</v>
   <v name="DARWINV">      1.00000000      1.00000000</v>
   <i type="logical" name="LCORR"> T  </i>
  </separator>
  <i type="logical" name="GGA_COMPAT"> T  </i>
  <i type="logical" name="LBERRY"> F  </i>
  <i type="int" name="ICORELEVEL">     0</i>
  <i type="logical" name="LDAU"> F  </i>
  <i type="int" name="I_CONSTRAINED_M">     0</i>
  <separator name="electronic exchange-correlation" >
   <i type="string" name="GGA">--</i>
   <i type="int" name="VOSKOWN">     0</i>
   <i type="logical" name="LHFCALC"> F  </i>
   <i type="string" name="PRECFOCK"></i>
   <i type="logical" name="LSYMGRAD"> F  </i>
   <i type="logical" name="LHFONE"> F  </i>
   <i type="logical" name="LRHFCALC"> F  </i>
   <i type="logical" name="LTHOMAS"> F  </i>
   <i type="logical" name="LMODELHF"> F  </i>
   <i name="ENCUT4O">     -1.00000000</i>
   <i type="int" name="EXXOEP">     0</i>
   <i type="int" name="FOURORBIT">     0</i>
   <i name="AEXX">      0.00000000</i>
   <i name="HFALPHA">      0.00000000</i>
   <i name="MCALPHA">      0.00000000</i>
   <i name="ALDAX">      1.00000000</i>
   <i name="AGGAX">      1.00000000</i>
   <i name="ALDAC">      1.00000000</i>
   <i name="AGGAC">      1.00000000</i>
   <i type="int" name="NKREDX">     1</i>
   <i type="int" name="NKREDY">     1</i>
   <i type="int" name="NKREDZ">     1</i>
   <i type="logical" name="SHIFTRED"> F  </i>
   <i type="logical" name="ODDONLY"> F  </i>
   <i type="logical" name="EVENONLY"> F  </i>
   <i type="int" name="LMAXFOCK">     0</i>
   <i type="int" name="NMAXFOCKAE">     0</i>
   <i type="logical" name="LFOCKAEDFT"> F  </i>
   <i name="HFSCREEN">      0.00000000</i>
   <i name="HFSCREENC">      0.00000000</i>
   <i type="int" name="NBANDSGWLOW">     0</i>
  </separator>
  <separator name="vdW DFT" >
   <i type="logical" name="LUSE_VDW"> F  </i>
   <i name="Zab_VDW">     -0.84910000</i>
   <i name="PARAM1">      0.12340000</i>
   <i name="PARAM2">      1.00000000</i>
   <i name="PARAM3">      0.00000000</i>
  </separator>
  <separator name="model GW" >
   <i type="int" name="MODEL_GW">     0</i>
   <i name="MODEL_EPS0">     51.21344606</i>
   <i name="MODEL_ALPHA">      1.00000000</i>
  </separator>
  <separator name="linear response parameters" >
   <i type="logical" name="LEPSILON"> F  </i>
   <i type="logical" name="LRPA"> F  </i>
   <i type="logical" name="LNABLA"> F  </i>
   <i type="logical" name="LVEL"> F  </i>
   <i type="int" name="KINTER">     0</i>
   <i name="CSHIFT">      0.10000000</i>
   <i name="OMEGAMAX">     -1.00000000</i>
   <i name="DEG_THRESHOLD">      0.00200000</i>
  </separator>
  <separator name="orbital magnetization" >
   <i type="logical" name="NUCIND"> F  </i>
   <v name="MAGPOS">      0.00000000      0.00000000      0.00000000</v>
   <i type="logical" name="LNICSALL"> T  </i>
   <i type="logical" name="ORBITALMAG"> F  </i>
   <i type="logical" name="LMAGBLOCH"> F  </i>
   <i type="logical" name="LCHIMAG"> F  </i>
   <i type="logical" name="LGAUGE"> T  </i>
   <i type="int" name="MAGATOM">     0</i>
   <v name="MAGDIPOL">      0.00000000      0.00000000      0.00000000</v>
   <v name="AVECCONST">      0.00000000      0.00000000      0.00000000</v>
  </separator>
  <separator name="response functions" >
   <i type="logical" name="LADDER"> F  </i>
   <i type="logical" name="LFXC"> F  </i>
   <i type="logical" name="LHARTREE"> T  </i>
   <i type="int" name="IBSE">     0</i>
   <v type="int" name="KPOINT">    -1     0     0     0</v>
   <i type="logical" name="LTCTE"> F  </i>
   <i type="logical" name="LTETE"> F  </i>
   <i type="logical" name="LTRIPLET"> F  </i>
   <i type="logical" name="LFXCEPS"> F  </i>
   <i type="logical" name="LFXHEG"> F  </i>
   <i type="int" name="NATURALO">     0</i>
   <i type="logical" name="L2ORDER"> F  </i>
   <i type="logical" name="LUSEW"> F  </i>
   <i name="ENCUTGW">     -2.00000000</i>
   <i name="ENCUTGWSOFT">     -2.00000000</i>
   <i name="ENCUTLF">     -1.00000000</i>
   <i type="int" name="LMAXMP2">    -1</i>
   <i name="SCISSOR">      0.00000000</i>
   <i type="int" name="NOMEGA">     0</i>
   <i type="int" name="NOMEGAR">     0</i>
   <i type="int" name="NBANDSGW">    -1</i>
   <i type="int" name="NBANDSO">    -1</i>
   <i type="int" name="NBANDSV">    -1</i>
   <i type="int" name="NELM">     1</i>
   <i type="int" name="NELMHF">     1</i>
   <i type="int" name="DIM">     3</i>
   <i type="int" name="ANTIRES">     0</i>
   <i name="OMEGAMAX">    -30.00000000</i>
   <i name="OMEGAMIN">    -30.00000000</i>
   <i name="OMEGATL">   -200.00000000</i>
   <i type="int" name="OMEGAGRID">     0</i>
   <i name="CSHIFT">     -0.10000000</i>
   <i type="logical" name="SELFENERGY"> F  </i>
   <i type="logical" name="LSPECTRAL"> F  </i>
   <i type="logical" name="LSPECTRALGW"> F  </i>
   <i type="logical" name="LSINGLES"> F  </i>
   <i type="logical" name="LFERMIGW"> F  </i>
   <i type="logical" name="ODDONLYGW"> F  </i>
   <i type="logical" name="EVENONLYGW"> F  </i>
   <i type="int" name="NKREDLFX">     1</i>
   <i type="int" name="NKREDLFY">     1</i>
   <i type="int" name="NKREDLFZ">     1</i>
   <i type="int" name="MAXMEM">  1800</i>
   <i type="int" name="TELESCOPE">     0</i>
   <i type="int" name="TAUPAR">     1</i>
   <i type="int" name="OMEGAPAR">    -1</i>
   <i name="LAMBDA">      1.00000000</i>
  </separator>
  <separator name="External order field" >
   <i name="OFIELD_KAPPA">      0.00000000</i>
   <v name="OFIELD_K">      0.00000000      0.00000000      0.00000000</v>
   <i name="OFIELD_Q6_NEAR">      0.00000000</i>
   <i name="OFIELD_Q6_FAR">      0.00000000</i>
   <i name="OFIELD_A">      0.00000000</i>
  </separator>
 </parameters>
 <atominfo>
  <atoms>       3 </atoms>
  <types>       2 </types>
  <array name="atoms" >
   <dimension dim="1">ion</dimension>
   <field type="string">element</field>
   <field type="int">atomtype</field>
   <set>
    <rc><c>O </c><c>   1</c></rc>
    <rc><c>H </c><c>   2</c></rc>
    <rc><c>H </c><c>   2</c></rc>
   </set>
  </array>
  <array name="atomtypes" >
   <dimension dim="1">type</dimension>
   <field type="int">atomspertype</field>
   <field type="string">element</field>
   <field>mass</field>
   <field>valence</field>
   <field type="string">pseudopotential</field>
   <set>
    <rc><c>   1</c><c>O </c><c>     16.00000000</c><c>      6.00000000</c><c> PAW_RPBE O 08Apr2002                   </c></rc>
    <rc><c>   2</c><c>H </c><c>      1.00000000</c><c>      1.00000000</c><c> PAW_RPBE H 15Jun2001                   </c></rc>
   </set>
  </array>
 </atominfo>
 <structure name="initialpos" >
  <crystal>
   <varray name="basis" >
    <v>       6.35016000       0.00000000       0.00000000 </v>
    <v>       0.00000000       6.35016000       0.00000000 </v>
    <v>       0.00000000       0.00000000       6.35016000 </v>
   </varray>
   <i name="volume">    256.06723029 </i>
   <varray name="rec_basis" >
    <v>       0.15747635       0.00000000       0.00000000 </v>
    <v>       0.00000000       0.15747635       0.00000000 </v>
    <v>       0.00000000       0.00000000       0.15747635 </v>
   </varray>
  </crystal>
  <varray name="positions" >
   <v>       0.00000000       0.00000000       0.00000000 </v>
   <v>       0.09166667       0.88083333       0.00000000 </v>
   <v>       0.09166667       0.11916667       0.00000000 </v>
  </varray>
  <varray name="selective"  type="logical" >
   <v type="logical" >  T  T  F </v>
   <v type="logical" >  T  T  F </v>
   <v type="logical" >  T  T  F </v>
  </varray>
  <varray name="velocities" >
   <v>       0.00026181       0.00128351       0.00000000 </v>
   <v>       0.00827022      -0.00431426       0.00000000 </v>
   <v>      -0.00692797       0.00921773       0.00000000 </v>
  </varray>
  <nose>
   <v>      -3.00000000       0.00000000    2000.00000000    2000.00000000 </v>
  </nose>
 </structure>
 <calculation>
  <scstep>
   <time name="dav">    0.02    0.02</time>
   <time name="total">    0.04    0.05</time>
   <energy>
    <i name="alphaZ">      0.87564028 </i>
    <i name="ewald">    -13.80331150 </i>
    <i name="hartreedc">   -348.16693738 </i>
    <i name="XCdc">     32.30093936 </i>
    <i name="pawpsdc">    247.56105404 </i>
    <i name="pawaedc">   -249.42875511 </i>
    <i name="eentropy">     -0.00000000 </i>
    <i name="bandstr">    -97.77944021 </i>
    <i name="atom">    457.22046137 </i>
    <i name="e_fr_energy">     28.77965084 </i>
    <i name="e_wo_entrp">     28.77965084 </i>
    <i name="e_0_energy">     28.77965084 </i>
   </energy>
  </scstep>
  <scstep>
   <time name="dav">    0.03    0.03</time>
   <time name="total">    0.04    0.04</time>
   <energy>
    <i name="e_fr_energy">    -15.17673783 </i>
    <i name="e_wo_entrp">    -15.17673783 </i>
    <i name="e_0_energy">    -15.17673783 </i>
   </energy>
  </scstep>
  <scstep>
   <time name="dav">    0.02    0.02</time>
   <time name="total">    0.02    0.03</time>
   <energy>
    <i name="e_fr_energy">    -16.32051190 </i>
    <i name="e_wo_entrp">    -16.32051190 </i>
    <i name="e_0_energy">    -16.32051190 </i>
   </energy>
  </scstep>
  <scstep>
   <time name="dav">    0.05    0.05</time>
   <time name="total">    0.05    0.05</time>
   <energy>
    <i name="e_fr_energy">    -16.32467393 </i>
    <i name="e_wo_entrp">    -16.32467393 </i>
    <i name="e_0_energy">    -16.32467393 </i>
   </energy>
  </scstep>
  <scstep>
   <time name="dav">    0.02    0.02</time>
   <time name="total">    0.03    0.04</time>
   <energy>
    <i name="e_fr_energy">    -16.32467396 </i>
    <i name="e_wo_entrp">    -16.32467396 </i>
    <i name="e_0_energy">    -16.32467396 </i>
   </energy>
  </scstep>
  <scstep>
   <time name="dav">    0.02    0.02</time>
   <time name="total">    0.05    0.05</time>
   <energy>
    <i name="e_fr_energy">    -14.37986273 </i>
    <i name="e_wo_entrp">    -14.37986273 </i>
    <i name="e_0_energy">    -14.37986273 </i>
   </energy>
  </scstep>
  <scstep>
   <time name="dav">    0.05    0.05</time>
   <time name="total">    0.08    0.08</time>
   <energy>
    <i name="e_fr_energy">    -14.26543945 </i>
    <i name="e_wo_entrp">    -14.26543945 </i>
    <i name="e_0_energy">    -14.26543945 </i>
   </energy>
  </scstep>
  <scstep>
   <time name="dav">    0.02    0.02</time>
   <time name="total">    0.04    0.05</time>
   <energy>
    <i name="e_fr_energy">    -14.18710203 </i>
    <i name="e_wo_entrp">    -14.18710203 </i>
    <i name="e_0_energy">    -14.18710203 </i>
   </energy>
  </scstep>
  <scstep>
   <time name="dav">    0.02    0.02</time>
   <time name="total">    0.05    0.06</time>
   <energy>
    <i name="e_fr_energy">    -14.19765127 </i>
    <i name="e_wo_entrp">    -14.19765127 </i>
    <i name="e_0_energy">    -14.19765127 </i>
   </energy>
  </scstep>
  <scstep>
   <time name="dav">    0.05    0.05</time>
   <time name="total">    0.08    0.08</time>
   <energy>
    <i name="e_fr_energy">    -14.20245081 </i>
    <i name="e_wo_entrp">    -14.20245081 </i>
    <i name="e_0_energy">    -14.20245081 </i>
   </energy>
  </scstep>
  <scstep>
   <time name="dav">    0.05    0.05</time>
   <time name="total">    0.08    0.09</time>
   <energy>
    <i name="e_fr_energy">    -14.20608176 </i>
    <i name="e_wo_entrp">    -14.20608176 </i>
    <i name="e_0_energy">    -14.20608176 </i>
   </energy>
  </scstep>
  <scstep>
   <time name="dav">    0.03    0.03</time>
   <time name="total">    0.06    0.06</time>
   <energy>
    <i name="e_fr_energy">    -14.20689647 </i>
    <i name="e_wo_entrp">    -14.20689647 </i>
    <i name="e_0_energy">    -14.20689647 </i>
   </energy>
  </scstep>
  <scstep>
   <time name="dav">    0.04    0.05</time>
   <time name="total">    0.08    0.08</time>
   <energy>
    <i name="e_fr_energy">    -14.20717469 </i>
    <i name="e_wo_entrp">    -14.20717469 </i>
    <i name="e_0_energy">    -14.20717469 </i>
   </energy>
  </scstep>
  <scstep>
   <time name="dav">    0.04    0.05</time>
   <time name="total">    0.07    0.07</time>
   <energy>
    <i name="alphaZ">      0.87564028 </i>
    <i name="ewald">    -13.80331150 </i>
    <i name="hartreedc">   -383.09768558 </i>
    <i name="XCdc">     34.21955415 </i>
    <i name="pawpsdc">    333.92648680 </i>
    <i name="pawaedc">   -336.06632643 </i>
    <i name="eentropy">     -0.00000000 </i>
    <i name="bandstr">   -107.48202508 </i>
    <i name="atom">    457.22046137 </i>
    <i name="e_fr_energy">    -14.20720599 </i>
    <i name="e_wo_entrp">    -14.20720599 </i>
    <i name="e_0_energy">    -14.20720599 </i>
   </energy>
  </scstep>
  <structure>
   <crystal>
    <varray name="basis" >
     <v>       6.35016000       0.00000000       0.00000000 </v>
     <v>       0.00000000       6.35016000       0.00000000 </v>
     <v>       0.00000000       0.00000000       6.35016000 </v>
    </varray>
    <i name="volume">    256.06723029 </i>
    <varray name="rec_basis" >
     <v>       0.15747635       0.00000000       0.00000000 </v>
     <v>       0.00000000       0.15747635       0.00000000 </v>
     <v>       0.00000000       0.00000000       0.15747635 </v>
    </varray>
   </crystal>
   <varray name="positions" >
    <v>       0.00000000       0.00000000       0.00000000 </v>
    <v>       0.09166667       0.88083333       0.00000000 </v>
    <v>       0.09166667       0.11916667       0.00000000 </v>
   </varray>
  </structure>
  <varray name="forces" >
   <v>      -1.09158527       0.00000125       0.00000000 </v>
   <v>       0.54606846      -0.72582186       0.00000000 </v>
   <v>       0.54606823       0.72582144       0.00000000 </v>
  </varray>
  <energy>
   <i name="e_fr_energy">    -14.20720599 </i>
   <i name="e_wo_entrp">    -14.20720599 </i>
   <i name="e_0_energy">     -0.00000000 </i>
   <i name="kinetic">      0.55172785 </i>
   <i name="lattice kinetic">      0.00000000 </i>
   <i name="nosepot">      0.00000000 </i>
   <i name="nosekinetic">      0.00000000 </i>
   <i name="total">    -13.65547814 </i>
  </energy>
  <time name="totalsc">    1.70    1.81</time>
 </calculation>
 <calculation>
  <scstep>
   <time name="dav">    0.02    0.02</time>
   <time name="total">    0.04    0.05</time>
   <energy>
    <i name="alphaZ">      0.87564028 </i>
    <i name="ewald">    -22.47272453 </i>
    <i name="hartreedc">   -378.50762499 </i>
    <i name="XCdc">     33.99215584 </i>
    <i name="pawpsdc">    333.90405181 </i>
    <i name="pawaedc">   -336.04373675 </i>
    <i name="eentropy">     -0.00000000 </i>
    <i name="bandstr">   -103.13057684 </i>
    <i name="atom">    457.22046137 </i>
    <i name="e_fr_energy">    -14.16235382 </i>
    <i name="e_wo_entrp">    -14.16235382 </i>
    <i name="e_0_energy">    -14.16235382 </i>
   </energy>
  </scstep>
  <scstep>
   <time name="dav">    0.05    0.05</time>
   <time name="total">    0.08    0.08</time>
   <energy>
    <i name="e_fr_energy">    -14.15266764 </i>
    <i name="e_wo_entrp">    -14.15266764 </i>
    <i name="e_0_energy">    -14.15266764 </i>
   </energy>
  </scstep>
  <scstep>
   <time name="dav">    0.03    0.03</time>
   <time name="total">    0.06    0.06</time>
   <energy>
    <i name="e_fr_energy">    -14.15227686 </i>
    <i name="e_wo_entrp">    -14.15227686 </i>
    <i name="e_0_energy">    -14.15227686 </i>
   </energy>
  </scstep>
  <scstep>
   <time name="dav">    0.05    0.05</time>
   <time name="total">    0.08    0.08</time>
   <energy>
    <i name="e_fr_energy">    -14.15254095 </i>
    <i name="e_wo_entrp">    -14.15254095 </i>
    <i name="e_0_energy">    -14.15254095 </i>
   </energy>
  </scstep>
  <scstep>
   <time name="dav">    0.03    0.03</time>
   <time name="total">    0.06    0.08</time>
   <energy>
    <i name="e_fr_energy">    -14.15271444 </i>
    <i name="e_wo_entrp">    -14.15271444 </i>
    <i name="e_0_energy">    -14.15271444 </i>
   </energy>
  </scstep>
  <scstep>
   <time name="dav">    0.03    0.03</time>
   <time name="total">    0.05    0.06</time>
   <energy>
    <i name="alphaZ">      0.87564028 </i>
    <i name="ewald">    -22.47272453 </i>
    <i name="hartreedc">   -376.41170122 </i>
    <i name="XCdc">     33.87449810 </i>
    <i name="pawpsdc">    321.85544994 </i>
    <i name="pawaedc">   -323.95009343 </i>
    <i name="eentropy">     -0.00000000 </i>
    <i name="bandstr">   -105.14434452 </i>
    <i name="atom">    457.22046137 </i>
    <i name="e_fr_energy">    -14.15281401 </i>
    <i name="e_wo_entrp">    -14.15281401 </i>
    <i name="e_0_energy">    -14.15281401 </i>
   </energy>
  </scstep>
  <structure>
   <crystal>
    <varray name="basis" >
     <v>       6.35016000       0.00000000       0.00000000 </v>
     <v>       0.00000000       6.35016000       0.00000000 </v>
     <v>       0.00000000       0.00000000       6.35016000 </v>
    </varray>
    <i name="volume">    256.06723029 </i>
    <varray name="rec_basis" >
     <v>       0.15747635       0.00000000       0.00000000 </v>
     <v>       0.00000000       0.15747635       0.00000000 </v>
     <v>       0.00000000       0.00000000       0.15747635 </v>
    </varray>
   </crystal>
   <varray name="positions" >
    <v>       0.00015815       0.00128351       0.00000000 </v>
    <v>       0.10076659       0.87541625       0.00000000 </v>
    <v>       0.08556840       0.12948722       0.00000000 </v>
   </varray>
  </structure>
  <varray name="forces" >
   <v>       0.99965601      -1.44610097       0.00000000 </v>
   <v>      -1.10344567       1.91041118       0.00000000 </v>
   <v>       0.10186237      -0.46604629       0.00000000 </v>
  </varray>
  <energy>
   <i name="e_fr_energy">    -14.15281401 </i>
   <i name="e_wo_entrp">    -14.15281401 </i>
   <i name="e_0_energy">     -0.00000000 </i>
   <i name="kinetic">      0.50957437 </i>
   <i name="lattice kinetic">      0.00000000 </i>
   <i name="nosepot">      0.00000000 </i>
   <i name="nosekinetic">      0.00000000 </i>
   <i name="total">    -13.64323964 </i>
  </energy>
  <time name="totalsc">    0.42    0.47</time>
 </calculation>
 <calculation>
  <scstep>
   <time name="dav">    0.02    0.02</time>
   <time name="total">    0.05    0.05</time>
   <energy>
    <i name="alphaZ">      0.87564028 </i>
    <i name="ewald">    -28.65161921 </i>
    <i name="hartreedc">   -371.21083531 </i>
    <i name="XCdc">     33.60837322 </i>
    <i name="pawpsdc">    312.18198466 </i>
    <i name="pawaedc">   -314.24109332 </i>
    <i name="eentropy">     -0.00000000 </i>
    <i name="bandstr">   -103.75709707 </i>
    <i name="atom">    457.22046137 </i>
    <i name="e_fr_energy">    -13.97418538 </i>
    <i name="e_wo_entrp">    -13.97418538 </i>
    <i name="e_0_energy">    -13.97418538 </i>
   </energy>
  </scstep>
  <scstep>
   <time name="dav">    0.05    0.05</time>
   <time name="total">    0.08    0.08</time>
   <energy>
    <i name="e_fr_energy">    -13.97467249 </i>
    <i name="e_wo_entrp">    -13.97467249 </i>
    <i name="e_0_energy">    -13.97467249 </i>
   </energy>
  </scstep>
  <scstep>
   <time name="dav">    0.03    0.03</time>
   <time name="total">    0.05    0.06</time>
   <energy>
    <i name="alphaZ">      0.87564028 </i>
    <i name="ewald">    -28.65161921 </i>
    <i name="hartreedc">   -371.53072521 </i>
    <i name="XCdc">     33.62517677 </i>
    <i name="pawpsdc">    313.57022690 </i>
    <i name="pawaedc">   -315.63756843 </i>
    <i name="eentropy">     -0.00000000 </i>
    <i name="bandstr">   -103.44623028 </i>
    <i name="atom">    457.22046137 </i>
    <i name="e_fr_energy">    -13.97463781 </i>
    <i name="e_wo_entrp">    -13.97463781 </i>
    <i name="e_0_energy">    -13.97463781 </i>
   </energy>
  </scstep>
  <structure>
   <crystal>
    <varray name="basis" >
     <v>       6.35016000       0.00000000       0.00000000 </v>
     <v>       0.00000000       6.35016000       0.00000000 </v>
     <v>       0.00000000       0.00000000       6.35016000 </v>
    </varray>
    <i name="volume">    256.06723029 </i>
    <varray name="rec_basis" >
     <v>       0.15747635       0.00000000       0.00000000 </v>
     <v>       0.00000000       0.15747635       0.00000000 </v>
     <v>       0.00000000       0.00000000       0.15747635 </v>
    </varray>
   </crystal>
   <varray name="positions" >
    <v>       0.00041122       0.00242970       0.00000000 </v>
    <v>       0.10818992       0.87290188       0.00000000 </v>
    <v>       0.07962490       0.13909966       0.00000000 </v>
   </varray>
  </structure>
  <varray name="forces" >
   <v>       2.05629244      -1.58139607       0.00000000 </v>
   <v>      -1.85704531       3.09982149       0.00000000 </v>
   <v>      -0.20127324      -1.52575425       0.00000000 </v>
  </varray>
  <energy>
   <i name="e_fr_energy">    -13.97463781 </i>
   <i name="e_wo_entrp">    -13.97463781 </i>
   <i name="e_0_energy">     -0.00000000 </i>
   <i name="kinetic">      0.34505601 </i>
   <i name="lattice kinetic">      0.00000000 </i>
   <i name="nosepot">      0.00000000 </i>
   <i name="nosekinetic">      0.00000000 </i>
   <i name="total">    -13.62958179 </i>
  </energy>
  <time name="totalsc">    0.23    0.25</time>
 </calculation>
 <calculation>
  <scstep>
   <time name="dav">    0.02    0.02</time>
   <time name="total">    0.05    0.05</time>
   <energy>
    <i name="alphaZ">      0.87564028 </i>
    <i name="ewald">    -30.89257112 </i>
    <i name="hartreedc">   -369.89676019 </i>
    <i name="XCdc">     33.53955099 </i>
    <i name="pawpsdc">    312.40318679 </i>
    <i name="pawaedc">   -314.46641601 </i>
    <i name="eentropy">     -0.00000000 </i>
    <i name="bandstr">   -102.66850223 </i>
    <i name="atom">    457.22046137 </i>
    <i name="e_fr_energy">    -13.88541013 </i>
    <i name="e_wo_entrp">    -13.88541013 </i>
    <i name="e_0_energy">    -13.88541013 </i>
   </energy>
  </scstep>
  <scstep>
   <time name="dav">    0.04    0.05</time>
   <time name="total">    0.07    0.08</time>
   <energy>
    <i name="e_fr_energy">    -13.88576199 </i>
    <i name="e_wo_entrp">    -13.88576199 </i>
    <i name="e_0_energy">    -13.88576199 </i>
   </energy>
  </scstep>
  <scstep>
   <time name="dav">    0.03    0.03</time>
   <time name="total">    0.05    0.06</time>
   <energy>
    <i name="alphaZ">      0.87564028 </i>
    <i name="ewald">    -30.89257112 </i>
    <i name="hartreedc">   -369.74565357 </i>
    <i name="XCdc">     33.53278226 </i>
    <i name="pawpsdc">    311.43418784 </i>
    <i name="pawaedc">   -313.49440430 </i>
    <i name="eentropy">     -0.00000000 </i>
    <i name="bandstr">   -102.81624248 </i>
    <i name="atom">    457.22046137 </i>
    <i name="e_fr_energy">    -13.88579971 </i>
    <i name="e_wo_entrp">    -13.88579971 </i>
    <i name="e_0_energy">    -13.88579971 </i>
   </energy>
  </scstep>
  <structure>
   <crystal>
    <varray name="basis" >
     <v>       6.35016000       0.00000000       0.00000000 </v>
     <v>       0.00000000       6.35016000       0.00000000 </v>
     <v>       0.00000000       0.00000000       6.35016000 </v>
    </varray>
    <i name="volume">    256.06723029 </i>
    <varray name="rec_basis" >
     <v>       0.15747635       0.00000000       0.00000000 </v>
     <v>       0.00000000       0.15747635       0.00000000 </v>
     <v>       0.00000000       0.00000000       0.15747635 </v>
    </varray>
   </crystal>
   <varray name="positions" >
    <v>       0.00085957       0.00342571       0.00000000 </v>
    <v>       0.11279163       0.87509742       0.00000000 </v>
    <v>       0.07337559       0.14639385       0.00000000 </v>
   </varray>
  </structure>
  <varray name="forces" >
   <v>       2.28677864      -1.25038030       0.00000000 </v>
   <v>      -2.01745844       3.35488391       0.00000000 </v>
   <v>      -0.27039240      -2.11756703       0.00000000 </v>
  </varray>
  <energy>
   <i name="e_fr_energy">    -13.88579971 </i>
   <i name="e_wo_entrp">    -13.88579971 </i>
   <i name="e_0_energy">     -0.00000000 </i>
   <i name="kinetic">      0.26103036 </i>
   <i name="lattice kinetic">      0.00000000 </i>
   <i name="nosepot">      0.00000000 </i>
   <i name="nosekinetic">      0.00000000 </i>
   <i name="total">    -13.62476935 </i>
  </energy>
  <time name="totalsc">    0.22    0.25</time>
 </calculation>
 <calculation>
  <scstep>
   <time name="dav">    0.03    0.03</time>
   <time name="total">    0.06    0.06</time>
   <energy>
    <i name="alphaZ">      0.87564028 </i>
    <i name="ewald">    -28.72772339 </i>
    <i name="hartreedc">   -371.69607855 </i>
    <i name="XCdc">     33.63003648 </i>
    <i name="pawpsdc">    314.89100556 </i>
    <i name="pawaedc">   -316.97138108 </i>
    <i name="eentropy">     -0.00000000 </i>
    <i name="bandstr">   -103.18955091 </i>
    <i name="atom">    457.22046137 </i>
    <i name="e_fr_energy">    -13.96759024 </i>
    <i name="e_wo_entrp">    -13.96759024 </i>
    <i name="e_0_energy">    -13.96759024 </i>
   </energy>
  </scstep>
  <scstep>
   <time name="dav">    0.04    0.05</time>
   <time name="total">    0.07    0.08</time>
   <energy>
    <i name="e_fr_energy">    -13.96808043 </i>
    <i name="e_wo_entrp">    -13.96808043 </i>
    <i name="e_0_energy">    -13.96808043 </i>
   </energy>
  </scstep>
  <scstep>
   <time name="dav">    0.05    0.05</time>
   <time name="total">    0.08    0.08</time>
   <energy>
    <i name="e_fr_energy">    -13.96835625 </i>
    <i name="e_wo_entrp">    -13.96835625 </i>
    <i name="e_0_energy">    -13.96835625 </i>
   </energy>
  </scstep>
  <scstep>
   <time name="dav">    0.05    0.05</time>
   <time name="total">    0.08    0.08</time>
   <energy>
    <i name="e_fr_energy">    -13.96846063 </i>
    <i name="e_wo_entrp">    -13.96846063 </i>
    <i name="e_0_energy">    -13.96846063 </i>
   </energy>
  </scstep>
  <scstep>
   <time name="dav">    0.05    0.05</time>
   <time name="total">    0.07    0.07</time>
   <energy>
    <i name="alphaZ">      0.87564028 </i>
    <i name="ewald">    -28.72772339 </i>
    <i name="hartreedc">   -371.61758605 </i>
    <i name="XCdc">     33.62585493 </i>
    <i name="pawpsdc">    314.19702830 </i>
    <i name="pawaedc">   -316.27645848 </i>
    <i name="eentropy">     -0.00000000 </i>
    <i name="bandstr">   -103.26572670 </i>
    <i name="atom">    457.22046137 </i>
    <i name="e_fr_energy">    -13.96850974 </i>
    <i name="e_wo_entrp">    -13.96850974 </i>
    <i name="e_0_energy">    -13.96850974 </i>
   </energy>
  </scstep>
  <structure>
   <crystal>
    <varray name="basis" >
     <v>       6.35016000       0.00000000       0.00000000 </v>
     <v>       0.00000000       6.35016000       0.00000000 </v>
     <v>       0.00000000       0.00000000       6.35016000 </v>
    </varray>
    <i name="volume">    256.06723029 </i>
    <varray name="rec_basis" >
     <v>       0.15747635       0.00000000       0.00000000 </v>
     <v>       0.00000000       0.15747635       0.00000000 </v>
     <v>       0.00000000       0.00000000       0.15747635 </v>
    </varray>
   </crystal>
   <varray name="positions" >
    <v>       0.00152508       0.00430298       0.00000000 </v>
    <v>       0.11432799       0.88239043       0.00000000 </v>
    <v>       0.06671544       0.15047057       0.00000000 </v>
   </varray>
  </structure>
  <varray name="forces" >
   <v>       1.77100105      -0.74112926       0.00000000 </v>
   <v>      -1.64837351       2.86883654       0.00000000 </v>
   <v>      -0.12644258      -2.13064202       0.00000000 </v>
  </varray>
  <energy>
   <i name="e_fr_energy">    -13.96850974 </i>
   <i name="e_wo_entrp">    -13.96850974 </i>
   <i name="e_0_energy">     -0.00000000 </i>
   <i name="kinetic">      0.33817804 </i>
   <i name="lattice kinetic">      0.00000000 </i>
   <i name="nosepot">      0.00000000 </i>
   <i name="nosekinetic">      0.00000000 </i>
   <i name="total">    -13.63033169 </i>
  </energy>
  <time name="totalsc">    0.40    0.43</time>
 </calculation>
 <calculation>
  <scstep>
   <time name="dav">    0.03    0.03</time>
   <time name="total">    0.06    0.06</time>
   <energy>
    <i name="alphaZ">      0.87564028 </i>
    <i name="ewald">    -22.24005670 </i>
    <i name="hartreedc">   -376.65151735 </i>
    <i name="XCdc">     33.88232894 </i>
    <i name="pawpsdc">    321.56020022 </i>
    <i name="pawaedc">   -323.67903061 </i>
    <i name="eentropy">     -0.00000000 </i>
    <i name="bandstr">   -105.09793456 </i>
    <i name="atom">    457.22046137 </i>
    <i name="e_fr_energy">    -14.12990840 </i>
    <i name="e_wo_entrp">    -14.12990840 </i>
    <i name="e_0_energy">    -14.12990840 </i>
   </energy>
  </scstep>
  <scstep>
   <time name="dav">    0.05    0.05</time>
   <time name="total">    0.07    0.08</time>
   <energy>
    <i name="e_fr_energy">    -14.13079877 </i>
    <i name="e_wo_entrp">    -14.13079877 </i>
    <i name="e_0_energy">    -14.13079877 </i>
   </energy>
  </scstep>
  <scstep>
   <time name="dav">    0.03    0.03</time>
   <time name="total">    0.05    0.05</time>
   <energy>
    <i name="alphaZ">      0.87564028 </i>
    <i name="ewald">    -22.24005670 </i>
    <i name="hartreedc">   -376.81126087 </i>
    <i name="XCdc">     33.89070584 </i>
    <i name="pawpsdc">    322.51048988 </i>
    <i name="pawaedc">   -324.63229620 </i>
    <i name="eentropy">     -0.00000000 </i>
    <i name="bandstr">   -104.94455767 </i>
    <i name="atom">    457.22046137 </i>
    <i name="e_fr_energy">    -14.13087407 </i>
    <i name="e_wo_entrp">    -14.13087407 </i>
    <i name="e_0_energy">    -14.13087407 </i>
   </energy>
  </scstep>
  <structure>
   <crystal>
    <varray name="basis" >
     <v>       6.35016000       0.00000000       0.00000000 </v>
     <v>       0.00000000       6.35016000       0.00000000 </v>
     <v>       0.00000000       0.00000000       6.35016000 </v>
    </varray>
    <i name="volume">    256.06723029 </i>
    <varray name="rec_basis" >
     <v>       0.15747635       0.00000000       0.00000000 </v>
     <v>       0.00000000       0.15747635       0.00000000 </v>
     <v>       0.00000000       0.00000000       0.15747635 </v>
    </varray>
   </crystal>
   <varray name="positions" >
    <v>       0.00235877       0.00510987       0.00000000 </v>
    <v>       0.11335977       0.89404239       0.00000000 </v>
    <v>       0.05986317       0.15130996       0.00000000 </v>
   </varray>
  </structure>
  <varray name="forces" >
   <v>       0.29322126       0.07753563       0.00000000 </v>
   <v>      -0.44224727       1.43614486       0.00000000 </v>
   <v>       0.14431372      -1.51311963       0.00000000 </v>
  </varray>
  <energy>
   <i name="e_fr_energy">    -14.13087407 </i>
   <i name="e_wo_entrp">    -14.13087407 </i>
   <i name="e_0_energy">     -0.00000000 </i>
   <i name="kinetic">      0.48407702 </i>
   <i name="lattice kinetic">      0.00000000 </i>
   <i name="nosepot">      0.00000000 </i>
   <i name="nosekinetic">      0.00000000 </i>
   <i name="total">    -13.64679705 </i>
  </energy>
  <time name="totalsc">    0.24    0.25</time>
 </calculation>
 <calculation>
  <scstep>
   <time name="dav">    0.05    0.05</time>
   <time name="total">    0.08    0.08</time>
   <energy>
    <i name="alphaZ">      0.87564028 </i>
    <i name="ewald">    -12.84954747 </i>
    <i name="hartreedc">   -383.78207079 </i>
    <i name="XCdc">     34.25417555 </i>
    <i name="pawpsdc">    334.54095712 </i>
    <i name="pawaedc">   -336.71927147 </i>
    <i name="eentropy">     -0.00000000 </i>
    <i name="bandstr">   -107.67673816 </i>
    <i name="atom">    457.22046137 </i>
    <i name="e_fr_energy">    -14.13639357 </i>
    <i name="e_wo_entrp">    -14.13639357 </i>
    <i name="e_0_energy">    -14.13639357 </i>
   </energy>
  </scstep>
  <scstep>
   <time name="dav">    0.03    0.03</time>
   <time name="total">    0.06    0.06</time>
   <energy>
    <i name="e_fr_energy">    -14.13660955 </i>
    <i name="e_wo_entrp">    -14.13660955 </i>
    <i name="e_0_energy">    -14.13660955 </i>
   </energy>
  </scstep>
  <scstep>
   <time name="dav">    0.04    0.05</time>
   <time name="total">    0.07    0.08</time>
   <energy>
    <i name="e_fr_energy">    -14.13675834 </i>
    <i name="e_wo_entrp">    -14.13675834 </i>
    <i name="e_0_energy">    -14.13675834 </i>
   </energy>
  </scstep>
  <scstep>
   <time name="dav">    0.05    0.05</time>
   <time name="total">    0.08    0.08</time>
   <energy>
    <i name="e_fr_energy">    -14.13686900 </i>
    <i name="e_wo_entrp">    -14.13686900 </i>
    <i name="e_0_energy">    -14.13686900 </i>
   </energy>
  </scstep>
  <scstep>
   <time name="dav">    0.05    0.05</time>
   <time name="total">    0.07    0.08</time>
   <energy>
    <i name="alphaZ">      0.87564028 </i>
    <i name="ewald">    -12.84954747 </i>
    <i name="hartreedc">   -384.02664588 </i>
    <i name="XCdc">     34.26538300 </i>
    <i name="pawpsdc">    336.65679521 </i>
    <i name="pawaedc">   -338.84151167 </i>
    <i name="eentropy">     -0.00000000 </i>
    <i name="bandstr">   -107.43747258 </i>
    <i name="atom">    457.22046137 </i>
    <i name="e_fr_energy">    -14.13689775 </i>
    <i name="e_wo_entrp">    -14.13689775 </i>
    <i name="e_0_energy">    -14.13689775 </i>
   </energy>
  </scstep>
  <structure>
   <crystal>
    <varray name="basis" >
     <v>       6.35016000       0.00000000       0.00000000 </v>
     <v>       0.00000000       6.35016000       0.00000000 </v>
     <v>       0.00000000       0.00000000       6.35016000 </v>
    </varray>
    <i name="volume">    256.06723029 </i>
    <varray name="rec_basis" >
     <v>       0.15747635       0.00000000       0.00000000 </v>
     <v>       0.00000000       0.15747635       0.00000000 </v>
     <v>       0.00000000       0.00000000       0.15747635 </v>
    </varray>
   </crystal>
   <varray name="positions" >
    <v>       0.00322031       0.00592412       0.00000000 </v>
    <v>       0.11171960       0.90787645       0.00000000 </v>
    <v>       0.05323017       0.14985029       0.00000000 </v>
   </varray>
  </structure>
  <varray name="forces" >
   <v>      -2.56471534       1.33733065       0.00000000 </v>
   <v>       2.08235723      -1.12758172       0.00000000 </v>
   <v>       0.47751546      -0.21188748       0.00000000 </v>
  </varray>
  <energy>
   <i name="e_fr_energy">    -14.13689775 </i>
   <i name="e_wo_entrp">    -14.13689775 </i>
   <i name="e_0_energy">     -0.00000000 </i>
   <i name="kinetic">      0.48363855 </i>
   <i name="lattice kinetic">      0.00000000 </i>
   <i name="nosepot">      0.00000000 </i>
   <i name="nosekinetic">      0.00000000 </i>
   <i name="total">    -13.65325920 </i>
  </energy>
  <time name="totalsc">    0.40    0.44</time>
 </calculation>
 <calculation>
  <scstep>
   <time name="dav">    0.02    0.02</time>
   <time name="total">    0.05    0.05</time>
   <energy>
    <i name="alphaZ">      0.87564028 </i>
    <i name="ewald">     -5.38264298 </i>
    <i name="hartreedc">   -389.73011473 </i>
    <i name="XCdc">     34.56924211 </i>
    <i name="pawpsdc">    349.20322350 </i>
    <i name="pawaedc">   -351.44338405 </i>
    <i name="eentropy">     -0.00000000 </i>
    <i name="bandstr">   -109.27715650 </i>
    <i name="atom">    457.22046137 </i>
    <i name="e_fr_energy">    -13.96473100 </i>
    <i name="e_wo_entrp">    -13.96473100 </i>
    <i name="e_0_energy">    -13.96473100 </i>
   </energy>
  </scstep>
  <scstep>
   <time name="dav">    0.05    0.05</time>
   <time name="total">    0.08    0.08</time>
   <energy>
    <i name="e_fr_energy">    -13.96633338 </i>
    <i name="e_wo_entrp">    -13.96633338 </i>
    <i name="e_0_energy">    -13.96633338 </i>
   </energy>
  </scstep>
  <scstep>
   <time name="dav">    0.04    0.05</time>
   <time name="total">    0.06    0.07</time>
   <energy>
    <i name="alphaZ">      0.87564028 </i>
    <i name="ewald">     -5.38264298 </i>
    <i name="hartreedc">   -389.60843663 </i>
    <i name="XCdc">     34.56062693 </i>
    <i name="pawpsdc">    348.69187189 </i>
    <i name="pawaedc">   -350.92615201 </i>
    <i name="eentropy">     -0.00000000 </i>
    <i name="bandstr">   -109.39769943 </i>
    <i name="atom">    457.22046137 </i>
    <i name="e_fr_energy">    -13.96633058 </i>
    <i name="e_wo_entrp">    -13.96633058 </i>
    <i name="e_0_energy">    -13.96633058 </i>
   </energy>
  </scstep>
  <structure>
   <crystal>
    <varray name="basis" >
     <v>       6.35016000       0.00000000       0.00000000 </v>
     <v>       0.00000000       6.35016000       0.00000000 </v>
     <v>       0.00000000       0.00000000       6.35016000 </v>
    </varray>
    <i name="volume">    256.06723029 </i>
    <varray name="rec_basis" >
     <v>       0.15747635       0.00000000       0.00000000 </v>
     <v>       0.00000000       0.15747635       0.00000000 </v>
     <v>       0.00000000       0.00000000       0.15747635 </v>
    </varray>
   </crystal>
   <varray name="positions" >
    <v>       0.00383829       0.00686537       0.00000000 </v>
    <v>       0.11324340       0.91999725       0.00000000 </v>
    <v>       0.04732272       0.14806868       0.00000000 </v>
   </varray>
  </structure>
  <varray name="forces" >
   <v>      -5.36146432       1.75707406       0.00000000 </v>
   <v>       4.58640500      -3.21463064       0.00000000 </v>
   <v>       0.76506945       1.46091874       0.00000000 </v>
  </varray>
  <energy>
   <i name="e_fr_energy">    -13.96633058 </i>
   <i name="e_wo_entrp">    -13.96633058 </i>
   <i name="e_0_energy">     -0.00000000 </i>
   <i name="kinetic">      0.34790824 </i>
   <i name="lattice kinetic">      0.00000000 </i>
   <i name="nosepot">      0.00000000 </i>
   <i name="nosekinetic">      0.00000000 </i>
   <i name="total">    -13.61842234 </i>
  </energy>
  <time name="totalsc">    0.25    0.26</time>
 </calculation>
 <calculation>
  <scstep>
   <time name="dav">    0.02    0.02</time>
   <time name="total">    0.05    0.05</time>
   <energy>
    <i name="alphaZ">      0.87564028 </i>
    <i name="ewald">     -6.13799552 </i>
    <i name="hartreedc">   -390.10836214 </i>
    <i name="XCdc">     34.58594701 </i>
    <i name="pawpsdc">    353.49777436 </i>
    <i name="pawaedc">   -355.74223146 </i>
    <i name="eentropy">     -0.00000000 </i>
    <i name="bandstr">   -108.23654357 </i>
    <i name="atom">    457.22046137 </i>
    <i name="e_fr_energy">    -14.04530969 </i>
    <i name="e_wo_entrp">    -14.04530969 </i>
    <i name="e_0_energy">    -14.04530969 </i>
   </energy>
  </scstep>
  <scstep>
   <time name="dav">    0.05    0.05</time>
   <time name="total">    0.07    0.08</time>
   <energy>
    <i name="e_fr_energy">    -14.04306447 </i>
    <i name="e_wo_entrp">    -14.04306447 </i>
    <i name="e_0_energy">    -14.04306447 </i>
   </energy>
  </scstep>
  <scstep>
   <time name="dav">    0.04    0.05</time>
   <time name="total">    0.06    0.07</time>
   <energy>
    <i name="alphaZ">      0.87564028 </i>
    <i name="ewald">     -6.13799552 </i>
    <i name="hartreedc">   -388.96452875 </i>
    <i name="XCdc">     34.52416210 </i>
    <i name="pawpsdc">    348.12868280 </i>
    <i name="pawaedc">   -350.34604029 </i>
    <i name="eentropy">     -0.00000000 </i>
    <i name="bandstr">   -109.34348873 </i>
    <i name="atom">    457.22046137 </i>
    <i name="e_fr_energy">    -14.04310675 </i>
    <i name="e_wo_entrp">    -14.04310675 </i>
    <i name="e_0_energy">    -14.04310675 </i>
   </energy>
  </scstep>
  <structure>
   <crystal>
    <varray name="basis" >
     <v>       6.35016000       0.00000000       0.00000000 </v>
     <v>       0.00000000       6.35016000       0.00000000 </v>
     <v>       0.00000000       0.00000000       6.35016000 </v>
    </varray>
    <i name="volume">    256.06723029 </i>
    <varray name="rec_basis" >
     <v>       0.15747635       0.00000000       0.00000000 </v>
     <v>       0.00000000       0.15747635       0.00000000 </v>
     <v>       0.00000000       0.00000000       0.15747635 </v>
    </varray>
   </crystal>
   <varray name="positions" >
    <v>       0.00394713       0.00797348       0.00000000 </v>
    <v>       0.12173585       0.92723369       0.00000000 </v>
    <v>       0.04257772       0.14850681       0.00000000 </v>
   </varray>
  </structure>
  <varray name="forces" >
   <v>      -4.21542871      -0.33316015       0.00000000 </v>
   <v>       3.38009777      -2.10749396       0.00000000 </v>
   <v>       0.82627272       2.42854880       0.00000000 </v>
  </varray>
  <energy>
   <i name="e_fr_energy">    -14.04310675 </i>
   <i name="e_wo_entrp">    -14.04310675 </i>
   <i name="e_0_energy">     -0.00000000 </i>
   <i name="kinetic">      0.40848036 </i>
   <i name="lattice kinetic">      0.00000000 </i>
   <i name="nosepot">      0.00000000 </i>
   <i name="nosekinetic">      0.00000000 </i>
   <i name="total">    -13.63462639 </i>
  </energy>
  <time name="totalsc">    0.24    0.26</time>
 </calculation>
 <calculation>
  <scstep>
   <time name="dav">    0.05    0.05</time>
   <time name="total">    0.08    0.08</time>
   <energy>
    <i name="alphaZ">      0.87564028 </i>
    <i name="ewald">    -13.95495879 </i>
    <i name="hartreedc">   -383.12284493 </i>
    <i name="XCdc">     34.22224584 </i>
    <i name="pawpsdc">    335.30598797 </i>
    <i name="pawaedc">   -337.45272401 </i>
    <i name="eentropy">     -0.00000000 </i>
    <i name="bandstr">   -107.28898483 </i>
    <i name="atom">    457.22046137 </i>
    <i name="e_fr_energy">    -14.19517710 </i>
    <i name="e_wo_entrp">    -14.19517710 </i>
    <i name="e_0_energy">    -14.19517710 </i>
   </energy>
  </scstep>
  <scstep>
   <time name="dav">    0.02    0.02</time>
   <time name="total">    0.05    0.05</time>
   <energy>
    <i name="e_fr_energy">    -14.19572771 </i>
    <i name="e_wo_entrp">    -14.19572771 </i>
    <i name="e_0_energy">    -14.19572771 </i>
   </energy>
  </scstep>
  <scstep>
   <time name="dav">    0.05    0.05</time>
   <time name="total">    0.07    0.08</time>
   <energy>
    <i name="e_fr_energy">    -14.19610914 </i>
    <i name="e_wo_entrp">    -14.19610914 </i>
    <i name="e_0_energy">    -14.19610914 </i>
   </energy>
  </scstep>
  <scstep>
   <time name="dav">    0.02    0.02</time>
   <time name="total">    0.04    0.04</time>
   <energy>
    <i name="alphaZ">      0.87564028 </i>
    <i name="ewald">    -13.95495879 </i>
    <i name="hartreedc">   -383.04474044 </i>
    <i name="XCdc">     34.21610976 </i>
    <i name="pawpsdc">    334.06995521 </i>
    <i name="pawaedc">   -336.21767216 </i>
    <i name="eentropy">     -0.00000000 </i>
    <i name="bandstr">   -107.36093587 </i>
    <i name="atom">    457.22046137 </i>
    <i name="e_fr_energy">    -14.19614063 </i>
    <i name="e_wo_entrp">    -14.19614063 </i>
    <i name="e_0_energy">    -14.19614063 </i>
   </energy>
  </scstep>
  <structure>
   <crystal>
    <varray name="basis" >
     <v>       6.35016000       0.00000000       0.00000000 </v>
     <v>       0.00000000       6.35016000       0.00000000 </v>
     <v>       0.00000000       0.00000000       6.35016000 </v>
    </varray>
    <i name="volume">    256.06723029 </i>
    <varray name="rec_basis" >
     <v>       0.15747635       0.00000000       0.00000000 </v>
     <v>       0.00000000       0.15747635       0.00000000 </v>
     <v>       0.00000000       0.00000000       0.15747635 </v>
    </varray>
   </crystal>
   <varray name="positions" >
    <v>       0.00365566       0.00904995       0.00000000 </v>
    <v>       0.13536408       0.93126796       0.00000000 </v>
    <v>       0.03908818       0.15263491       0.00000000 </v>
   </varray>
  </structure>
  <varray name="forces" >
   <v>      -0.59072292      -1.82921677       0.00000000 </v>
   <v>       0.04396006       0.13077725       0.00000000 </v>
   <v>       0.54431728       1.70616953       0.00000000 </v>
  </varray>
  <energy>
   <i name="e_fr_energy">    -14.19614063 </i>
   <i name="e_wo_entrp">    -14.19614063 </i>
   <i name="e_0_energy">     -0.00000000 </i>
   <i name="kinetic">      0.54313630 </i>
   <i name="lattice kinetic">      0.00000000 </i>
   <i name="nosepot">      0.00000000 </i>
   <i name="nosekinetic">      0.00000000 </i>
   <i name="total">    -13.65300433 </i>
  </energy>
  <time name="totalsc">    0.29    0.31</time>
 </calculation>
 <calculation>
  <scstep>
   <time name="dav">    0.02    0.02</time>
   <time name="total">    0.05    0.05</time>
   <energy>
    <i name="alphaZ">      0.87564028 </i>
    <i name="ewald">    -23.03833655 </i>
    <i name="hartreedc">   -375.83770747 </i>
    <i name="XCdc">     33.84715811 </i>
    <i name="pawpsdc">    319.80388329 </i>
    <i name="pawaedc">   -321.87800196 </i>
    <i name="eentropy">     -0.00000000 </i>
    <i name="bandstr">   -105.12592833 </i>
    <i name="atom">    457.22046137 </i>
    <i name="e_fr_energy">    -14.13283126 </i>
    <i name="e_wo_entrp">    -14.13283126 </i>
    <i name="e_0_energy">    -14.13283126 </i>
   </energy>
  </scstep>
  <scstep>
   <time name="dav">    0.05    0.05</time>
   <time name="total">    0.08    0.08</time>
   <energy>
    <i name="e_fr_energy">    -14.13359931 </i>
    <i name="e_wo_entrp">    -14.13359931 </i>
    <i name="e_0_energy">    -14.13359931 </i>
   </energy>
  </scstep>
  <scstep>
   <time name="dav">    0.03    0.03</time>
   <time name="total">    0.05    0.06</time>
   <energy>
    <i name="alphaZ">      0.87564028 </i>
    <i name="ewald">    -23.03833655 </i>
    <i name="hartreedc">   -375.87547637 </i>
    <i name="XCdc">     33.84786548 </i>
    <i name="pawpsdc">    320.51767511 </i>
    <i name="pawaedc">   -322.59679043 </i>
    <i name="eentropy">     -0.00000000 </i>
    <i name="bandstr">   -105.08460944 </i>
    <i name="atom">    457.22046137 </i>
    <i name="e_fr_energy">    -14.13357054 </i>
    <i name="e_wo_entrp">    -14.13357054 </i>
    <i name="e_0_energy">    -14.13357054 </i>
   </energy>
  </scstep>
  <structure>
   <crystal>
    <varray name="basis" >
     <v>       6.35016000       0.00000000       0.00000000 </v>
     <v>       0.00000000       6.35016000       0.00000000 </v>
     <v>       0.00000000       0.00000000       6.35016000 </v>
    </varray>
    <i name="volume">    256.06723029 </i>
    <varray name="rec_basis" >
     <v>       0.15747635       0.00000000       0.00000000 </v>
     <v>       0.00000000       0.15747635       0.00000000 </v>
     <v>       0.00000000       0.00000000       0.15747635 </v>
    </varray>
   </crystal>
   <varray name="positions" >
    <v>       0.00330809       0.00995272       0.00000000 </v>
    <v>       0.14905909       0.93550095       0.00000000 </v>
    <v>       0.03642568       0.15935540       0.00000000 </v>
   </varray>
  </structure>
  <varray name="forces" >
   <v>       2.13527240      -1.34816420       0.00000000 </v>
   <v>      -2.27892288       1.31255965       0.00000000 </v>
   <v>       0.13551755       0.03963515       0.00000000 </v>
  </varray>
  <energy>
   <i name="e_fr_energy">    -14.13357054 </i>
   <i name="e_wo_entrp">    -14.13357054 </i>
   <i name="e_0_energy">     -0.00000000 </i>
   <i name="kinetic">      0.49072207 </i>
   <i name="lattice kinetic">      0.00000000 </i>
   <i name="nosepot">      0.00000000 </i>
   <i name="nosekinetic">      0.00000000 </i>
   <i name="total">    -13.64284847 </i>
  </energy>
  <time name="totalsc">    1.11    1.15</time>
 </calculation>
 <calculation>
  <scstep>
   <time name="dav">    0.05    0.05</time>
   <time name="total">    0.08    0.08</time>
   <energy>
    <i name="alphaZ">      0.87564028 </i>
    <i name="ewald">    -29.58319137 </i>
    <i name="hartreedc">   -370.17867657 </i>
    <i name="XCdc">     33.55734625 </i>
    <i name="pawpsdc">    309.89514679 </i>
    <i name="pawaedc">   -311.91888551 </i>
    <i name="eentropy">     -0.00000000 </i>
    <i name="bandstr">   -103.84083963 </i>
    <i name="atom">    457.22046137 </i>
    <i name="e_fr_energy">    -13.97299838 </i>
    <i name="e_wo_entrp">    -13.97299838 </i>
    <i name="e_0_energy">    -13.97299838 </i>
   </energy>
  </scstep>
  <scstep>
   <time name="dav">    0.04    0.05</time>
   <time name="total">    0.08    0.08</time>
   <energy>
    <i name="e_fr_energy">    -13.97274333 </i>
    <i name="e_wo_entrp">    -13.97274333 </i>
    <i name="e_0_energy">    -13.97274333 </i>
   </energy>
  </scstep>
  <scstep>
   <time name="dav">    0.04    0.05</time>
   <time name="total">    0.07    0.07</time>
   <energy>
    <i name="alphaZ">      0.87564028 </i>
    <i name="ewald">    -29.58319137 </i>
    <i name="hartreedc">   -370.57620355 </i>
    <i name="XCdc">     33.57907933 </i>
    <i name="pawpsdc">    311.50183939 </i>
    <i name="pawaedc">   -313.53350064 </i>
    <i name="eentropy">     -0.00000000 </i>
    <i name="bandstr">   -103.45689386 </i>
    <i name="atom">    457.22046137 </i>
    <i name="e_fr_energy">    -13.97276906 </i>
    <i name="e_wo_entrp">    -13.97276906 </i>
    <i name="e_0_energy">    -13.97276906 </i>
   </energy>
  </scstep>
  <structure>
   <crystal>
    <varray name="basis" >
     <v>       6.35016000       0.00000000       0.00000000 </v>
     <v>       0.00000000       6.35016000       0.00000000 </v>
     <v>       0.00000000       0.00000000       6.35016000 </v>
    </varray>
    <i name="volume">    256.06723029 </i>
    <varray name="rec_basis" >
     <v>       0.15747635       0.00000000       0.00000000 </v>
     <v>       0.00000000       0.15747635       0.00000000 </v>
     <v>       0.00000000       0.00000000       0.15747635 </v>
    </varray>
   </crystal>
   <varray name="positions" >
    <v>       0.00316329       0.01072745       0.00000000 </v>
    <v>       0.15929148       0.94172825       0.00000000 </v>
    <v>       0.03396909       0.16613611       0.00000000 </v>
   </varray>
  </structure>
  <varray name="forces" >
   <v>       3.51204004      -0.23011774       0.00000000 </v>
   <v>      -3.34606425       1.59031630       0.00000000 </v>
   <v>      -0.16823989      -1.35816462       0.00000000 </v>
  </varray>
  <energy>
   <i name="e_fr_energy">    -13.97276906 </i>
   <i name="e_wo_entrp">    -13.97276906 </i>
   <i name="e_0_energy">     -0.00000000 </i>
   <i name="kinetic">      0.34165960 </i>
   <i name="lattice kinetic">      0.00000000 </i>
   <i name="nosepot">      0.00000000 </i>
   <i name="nosekinetic">      0.00000000 </i>
   <i name="total">    -13.63110946 </i>
  </energy>
  <time name="totalsc">    0.27    0.29</time>
 </calculation>
 <calculation>
  <scstep>
   <time name="dav">    0.04    0.05</time>
   <time name="total">    0.07    0.08</time>
   <energy>
    <i name="alphaZ">      0.87564028 </i>
    <i name="ewald">    -32.07164662 </i>
    <i name="hartreedc">   -368.56640252 </i>
    <i name="XCdc">     33.47719319 </i>
    <i name="pawpsdc">    309.15351484 </i>
    <i name="pawaedc">   -311.16654036 </i>
    <i name="eentropy">     -0.00000000 </i>
    <i name="bandstr">   -102.82192588 </i>
    <i name="atom">    457.22046137 </i>
    <i name="e_fr_energy">    -13.89970570 </i>
    <i name="e_wo_entrp">    -13.89970570 </i>
    <i name="e_0_energy">    -13.89970570 </i>
   </energy>
  </scstep>
  <scstep>
   <time name="dav">    0.02    0.02</time>
   <time name="total">    0.05    0.05</time>
   <energy>
    <i name="e_fr_energy">    -13.89987108 </i>
    <i name="e_wo_entrp">    -13.89987108 </i>
    <i name="e_0_energy">    -13.89987108 </i>
   </energy>
  </scstep>
  <scstep>
   <time name="dav">    0.05    0.05</time>
   <time name="total">    0.08    0.08</time>
   <energy>
    <i name="e_fr_energy">    -13.90010515 </i>
    <i name="e_wo_entrp">    -13.90010515 </i>
    <i name="e_0_energy">    -13.90010515 </i>
   </energy>
  </scstep>
  <scstep>
   <time name="dav">    0.03    0.03</time>
   <time name="total">    0.05    0.06</time>
   <energy>
    <i name="alphaZ">      0.87564028 </i>
    <i name="ewald">    -32.07164662 </i>
    <i name="hartreedc">   -368.53346331 </i>
    <i name="XCdc">     33.47628223 </i>
    <i name="pawpsdc">    308.68513040 </i>
    <i name="pawaedc">   -310.69558358 </i>
    <i name="eentropy">     -0.00000000 </i>
    <i name="bandstr">   -102.85700440 </i>
    <i name="atom">    457.22046137 </i>
    <i name="e_fr_energy">    -13.90018363 </i>
    <i name="e_wo_entrp">    -13.90018363 </i>
    <i name="e_0_energy">    -13.90018363 </i>
   </energy>
  </scstep>
  <structure>
   <crystal>
    <varray name="basis" >
     <v>       6.35016000       0.00000000       0.00000000 </v>
     <v>       0.00000000       6.35016000       0.00000000 </v>
     <v>       0.00000000       0.00000000       6.35016000 </v>
    </varray>
    <i name="volume">    256.06723029 </i>
    <varray name="rec_basis" >
     <v>       0.15747635       0.00000000       0.00000000 </v>
     <v>       0.00000000       0.15747635       0.00000000 </v>
     <v>       0.00000000       0.00000000       0.15747635 </v>
    </varray>
   </crystal>
   <varray name="positions" >
    <v>       0.00335201       0.01148033       0.00000000 </v>
    <v>       0.16443980       0.95037191       0.00000000 </v>
    <v>       0.03125687       0.17085320       0.00000000 </v>
   </varray>
  </structure>
  <varray name="forces" >
   <v>       3.94306785       0.66472189       0.00000000 </v>
   <v>      -3.59871520       1.39305351       0.00000000 </v>
   <v>      -0.34658368      -2.05249043       0.00000000 </v>
  </varray>
  <energy>
   <i name="e_fr_energy">    -13.90018363 </i>
   <i name="e_wo_entrp">    -13.90018363 </i>
   <i name="e_0_energy">     -0.00000000 </i>
   <i name="kinetic">      0.27351663 </i>
   <i name="lattice kinetic">      0.00000000 </i>
   <i name="nosepot">      0.00000000 </i>
   <i name="nosekinetic">      0.00000000 </i>
   <i name="total">    -13.62666701 </i>
  </energy>
  <time name="totalsc">    0.30    0.32</time>
 </calculation>
 <calculation>
  <scstep>
   <time name="dav">    0.04    0.05</time>
   <time name="total">    0.07    0.08</time>
   <energy>
    <i name="alphaZ">      0.87564028 </i>
    <i name="ewald">    -30.05737941 </i>
    <i name="hartreedc">   -370.11760844 </i>
    <i name="XCdc">     33.55473380 </i>
    <i name="pawpsdc">    311.13579525 </i>
    <i name="pawaedc">   -313.15269230 </i>
    <i name="eentropy">     -0.00000000 </i>
    <i name="bandstr">   -103.44803026 </i>
    <i name="atom">    457.22046137 </i>
    <i name="e_fr_energy">    -13.98907972 </i>
    <i name="e_wo_entrp">    -13.98907972 </i>
    <i name="e_0_energy">    -13.98907972 </i>
   </energy>
  </scstep>
  <scstep>
   <time name="dav">    0.02    0.02</time>
   <time name="total">    0.05    0.05</time>
   <energy>
    <i name="e_fr_energy">    -13.98943171 </i>
    <i name="e_wo_entrp">    -13.98943171 </i>
    <i name="e_0_energy">    -13.98943171 </i>
   </energy>
  </scstep>
  <scstep>
   <time name="dav">    0.03    0.03</time>
   <time name="total">    0.06    0.06</time>
   <energy>
    <i name="e_fr_energy">    -13.98961829 </i>
    <i name="e_wo_entrp">    -13.98961829 </i>
    <i name="e_0_energy">    -13.98961829 </i>
   </energy>
  </scstep>
  <scstep>
   <time name="dav">    0.03    0.03</time>
   <time name="total">    0.05    0.05</time>
   <energy>
    <i name="alphaZ">      0.87564028 </i>
    <i name="ewald">    -30.05737941 </i>
    <i name="hartreedc">   -370.12636307 </i>
    <i name="XCdc">     33.55543143 </i>
    <i name="pawpsdc">    310.77091569 </i>
    <i name="pawaedc">   -312.78610920 </i>
    <i name="eentropy">     -0.00000000 </i>
    <i name="bandstr">   -103.44229147 </i>
    <i name="atom">    457.22046137 </i>
    <i name="e_fr_energy">    -13.98969438 </i>
    <i name="e_wo_entrp">    -13.98969438 </i>
    <i name="e_0_energy">    -13.98969438 </i>
   </energy>
  </scstep>
  <structure>
   <crystal>
    <varray name="basis" >
     <v>       6.35016000       0.00000000       0.00000000 </v>
     <v>       0.00000000       6.35016000       0.00000000 </v>
     <v>       0.00000000       0.00000000       6.35016000 </v>
    </varray>
    <i name="volume">    256.06723029 </i>
    <varray name="rec_basis" >
     <v>       0.15747635       0.00000000       0.00000000 </v>
     <v>       0.00000000       0.15747635       0.00000000 </v>
     <v>       0.00000000       0.00000000       0.15747635 </v>
    </varray>
   </crystal>
   <varray name="positions" >
    <v>       0.00391517       0.01229634       0.00000000 </v>
    <v>       0.16412018       0.96113219       0.00000000 </v>
    <v>       0.02801805       0.17245170       0.00000000 </v>
   </varray>
  </structure>
  <varray name="forces" >
   <v>       3.56285865       1.18326729       0.00000000 </v>
   <v>      -3.11454941       0.86363705       0.00000000 </v>
   <v>      -0.45064155      -2.04254888       0.00000000 </v>
  </varray>
  <energy>
   <i name="e_fr_energy">    -13.98969438 </i>
   <i name="e_wo_entrp">    -13.98969438 </i>
   <i name="e_0_energy">     -0.00000000 </i>
   <i name="kinetic">      0.35759930 </i>
   <i name="lattice kinetic">      0.00000000 </i>
   <i name="nosepot">      0.00000000 </i>
   <i name="nosekinetic">      0.00000000 </i>
   <i name="total">    -13.63209507 </i>
  </energy>
  <time name="totalsc">    0.28    0.31</time>
 </calculation>
 <calculation>
  <scstep>
   <time name="dav">    0.05    0.05</time>
   <time name="total">    0.08    0.08</time>
   <energy>
    <i name="alphaZ">      0.87564028 </i>
    <i name="ewald">    -23.65158647 </i>
    <i name="hartreedc">   -375.06009532 </i>
    <i name="XCdc">     33.80478632 </i>
    <i name="pawpsdc">    317.75184585 </i>
    <i name="pawaedc">   -319.79580700 </i>
    <i name="eentropy">     -0.00000000 </i>
    <i name="bandstr">   -105.29683476 </i>
    <i name="atom">    457.22046137 </i>
    <i name="e_fr_energy">    -14.15158972 </i>
    <i name="e_wo_entrp">    -14.15158972 </i>
    <i name="e_0_energy">    -14.15158972 </i>
   </energy>
  </scstep>
  <scstep>
   <time name="dav">    0.02    0.02</time>
   <time name="total">    0.05    0.05</time>
   <energy>
    <i name="e_fr_energy">    -14.15195358 </i>
    <i name="e_wo_entrp">    -14.15195358 </i>
    <i name="e_0_energy">    -14.15195358 </i>
   </energy>
  </scstep>
  <scstep>
   <time name="dav">    0.05    0.05</time>
   <time name="total">    0.06    0.07</time>
   <energy>
    <i name="alphaZ">      0.87564028 </i>
    <i name="ewald">    -23.65158647 </i>
    <i name="hartreedc">   -375.22095157 </i>
    <i name="XCdc">     33.81315886 </i>
    <i name="pawpsdc">    318.54894332 </i>
    <i name="pawaedc">   -320.59550159 </i>
    <i name="eentropy">     -0.00000000 </i>
    <i name="bandstr">   -105.14220931 </i>
    <i name="atom">    457.22046137 </i>
    <i name="e_fr_energy">    -14.15204511 </i>
    <i name="e_wo_entrp">    -14.15204511 </i>
    <i name="e_0_energy">    -14.15204511 </i>
   </energy>
  </scstep>
  <structure>
   <crystal>
    <varray name="basis" >
     <v>       6.35016000       0.00000000       0.00000000 </v>
     <v>       0.00000000       6.35016000       0.00000000 </v>
     <v>       0.00000000       0.00000000       6.35016000 </v>
    </varray>
    <i name="volume">    256.06723029 </i>
    <varray name="rec_basis" >
     <v>       0.15747635       0.00000000       0.00000000 </v>
     <v>       0.00000000       0.15747635       0.00000000 </v>
     <v>       0.00000000       0.00000000       0.15747635 </v>
    </varray>
   </crystal>
   <varray name="positions" >
    <v>       0.00481668       0.01322472       0.00000000 </v>
    <v>       0.15906827       0.97320470       0.00000000 </v>
    <v>       0.02409451       0.17094673       0.00000000 </v>
   </varray>
  </structure>
  <varray name="forces" >
   <v>       2.06677912       1.30677336       0.00000000 </v>
   <v>      -1.52328790       0.01112025       0.00000000 </v>
   <v>      -0.54538243      -1.31345605       0.00000000 </v>
  </varray>
  <energy>
   <i name="e_fr_energy">    -14.15204511 </i>
   <i name="e_wo_entrp">    -14.15204511 </i>
   <i name="e_0_energy">     -0.00000000 </i>
   <i name="kinetic">      0.50417083 </i>
   <i name="lattice kinetic">      0.00000000 </i>
   <i name="nosepot">      0.00000000 </i>
   <i name="nosekinetic">      0.00000000 </i>
   <i name="total">    -13.64787428 </i>
  </energy>
  <time name="totalsc">    0.24    0.26</time>
 </calculation>
 <calculation>
  <scstep>
   <time name="dav">    0.02    0.02</time>
   <time name="total">    0.05    0.05</time>
   <energy>
    <i name="alphaZ">      0.87564028 </i>
    <i name="ewald">    -14.20973549 </i>
    <i name="hartreedc">   -382.22765143 </i>
    <i name="XCdc">     34.17415249 </i>
    <i name="pawpsdc">    329.95253141 </i>
    <i name="pawaedc">   -332.04604489 </i>
    <i name="eentropy">     -0.00000000 </i>
    <i name="bandstr">   -107.89680056 </i>
    <i name="atom">    457.22046137 </i>
    <i name="e_fr_energy">    -14.15744682 </i>
    <i name="e_wo_entrp">    -14.15744682 </i>
    <i name="e_0_energy">    -14.15744682 </i>
   </energy>
  </scstep>
  <scstep>
   <time name="dav">    0.05    0.05</time>
   <time name="total">    0.07    0.08</time>
   <energy>
    <i name="e_fr_energy">    -14.15962742 </i>
    <i name="e_wo_entrp">    -14.15962742 </i>
    <i name="e_0_energy">    -14.15962742 </i>
   </energy>
  </scstep>
  <scstep>
   <time name="dav">    0.02    0.02</time>
   <time name="total">    0.04    0.04</time>
   <energy>
    <i name="alphaZ">      0.87564028 </i>
    <i name="ewald">    -14.20973549 </i>
    <i name="hartreedc">   -382.47682157 </i>
    <i name="XCdc">     34.18734604 </i>
    <i name="pawpsdc">    331.16764306 </i>
    <i name="pawaedc">   -333.26619049 </i>
    <i name="eentropy">     -0.00000000 </i>
    <i name="bandstr">   -107.65791219 </i>
    <i name="atom">    457.22046137 </i>
    <i name="e_fr_energy">    -14.15956899 </i>
    <i name="e_wo_entrp">    -14.15956899 </i>
    <i name="e_0_energy">    -14.15956899 </i>
   </energy>
  </scstep>
  <structure>
   <crystal>
    <varray name="basis" >
     <v>       6.35016000       0.00000000       0.00000000 </v>
     <v>       0.00000000       6.35016000       0.00000000 </v>
     <v>       0.00000000       0.00000000       6.35016000 </v>
    </varray>
    <i name="volume">    256.06723029 </i>
    <varray name="rec_basis" >
     <v>       0.15747635       0.00000000       0.00000000 </v>
     <v>       0.00000000       0.15747635       0.00000000 </v>
     <v>       0.00000000       0.00000000       0.15747635 </v>
    </varray>
   </crystal>
   <varray name="positions" >
    <v>       0.00591446       0.01427719       0.00000000 </v>
    <v>       0.15170185       0.98529411       0.00000000 </v>
    <v>       0.01934231       0.16744607       0.00000000 </v>
   </varray>
  </structure>
  <varray name="forces" >
   <v>      -0.94825128       0.94557591       0.00000000 </v>
   <v>       1.64020521      -1.05174836       0.00000000 </v>
   <v>      -0.68819298       0.10920676       0.00000000 </v>
  </varray>
  <energy>
   <i name="e_fr_energy">    -14.15956899 </i>
   <i name="e_wo_entrp">    -14.15956899 </i>
   <i name="e_0_energy">     -0.00000000 </i>
   <i name="kinetic">      0.50452593 </i>
   <i name="lattice kinetic">      0.00000000 </i>
   <i name="nosepot">      0.00000000 </i>
   <i name="nosekinetic">      0.00000000 </i>
   <i name="total">    -13.65504306 </i>
  </energy>
  <time name="totalsc">    0.22    0.23</time>
 </calculation>
 <calculation>
  <scstep>
   <time name="dav">    0.02    0.02</time>
   <time name="total">    0.05    0.05</time>
   <energy>
    <i name="alphaZ">      0.87564028 </i>
    <i name="ewald">     -6.15381483 </i>
    <i name="hartreedc">   -388.40855362 </i>
    <i name="XCdc">     34.49853396 </i>
    <i name="pawpsdc">    342.73072122 </i>
    <i name="pawaedc">   -344.87729176 </i>
    <i name="eentropy">     -0.00000000 </i>
    <i name="bandstr">   -109.84432872 </i>
    <i name="atom">    457.22046137 </i>
    <i name="e_fr_energy">    -13.95863210 </i>
    <i name="e_wo_entrp">    -13.95863210 </i>
    <i name="e_0_energy">    -13.95863210 </i>
   </energy>
  </scstep>
  <scstep>
   <time name="dav">    0.02    0.02</time>
   <time name="total">    0.05    0.05</time>
   <energy>
    <i name="e_fr_energy">    -13.96026184 </i>
    <i name="e_wo_entrp">    -13.96026184 </i>
    <i name="e_0_energy">    -13.96026184 </i>
   </energy>
  </scstep>
  <scstep>
   <time name="dav">    0.05    0.05</time>
   <time name="total">    0.08    0.08</time>
   <energy>
    <i name="e_fr_energy">    -13.96049453 </i>
    <i name="e_wo_entrp">    -13.96049453 </i>
    <i name="e_0_energy">    -13.96049453 </i>
   </energy>
  </scstep>
  <scstep>
   <time name="dav">    0.05    0.05</time>
   <time name="total">    0.07    0.07</time>
   <energy>
    <i name="alphaZ">      0.87564028 </i>
    <i name="ewald">     -6.15381483 </i>
    <i name="hartreedc">   -388.59798141 </i>
    <i name="XCdc">     34.50512319 </i>
    <i name="pawpsdc">    344.52275584 </i>
    <i name="pawaedc">   -346.68061245 </i>
    <i name="eentropy">     -0.00000000 </i>
    <i name="bandstr">   -109.65207067 </i>
    <i name="atom">    457.22046137 </i>
    <i name="e_fr_energy">    -13.96049868 </i>
    <i name="e_wo_entrp">    -13.96049868 </i>
    <i name="e_0_energy">    -13.96049868 </i>
   </energy>
  </scstep>
  <structure>
   <crystal>
    <varray name="basis" >
     <v>       6.35016000       0.00000000       0.00000000 </v>
     <v>       0.00000000       6.35016000       0.00000000 </v>
     <v>       0.00000000       0.00000000       6.35016000 </v>
    </varray>
    <i name="volume">    256.06723029 </i>
    <varray name="rec_basis" >
     <v>       0.15747635       0.00000000       0.00000000 </v>
     <v>       0.00000000       0.15747635       0.00000000 </v>
     <v>       0.00000000       0.00000000       0.15747635 </v>
    </varray>
   </crystal>
   <varray name="positions" >
    <v>       0.00692218       0.01541945       0.00000000 </v>
    <v>       0.14682759       0.99578547       0.00000000 </v>
    <v>       0.01354447       0.16411134       0.00000000 </v>
   </varray>
  </structure>
  <varray name="forces" >
   <v>      -4.16704146      -0.09693030       0.00000000 </v>
   <v>       5.05351324      -1.72910967       0.00000000 </v>
   <v>      -0.88349733       1.82373686       0.00000000 </v>
  </varray>
  <energy>
   <i name="e_fr_energy">    -13.96049868 </i>
   <i name="e_wo_entrp">    -13.96049868 </i>
   <i name="e_0_energy">     -0.00000000 </i>
   <i name="kinetic">      0.33884660 </i>
   <i name="lattice kinetic">      0.00000000 </i>
   <i name="nosepot">      0.00000000 </i>
   <i name="nosekinetic">      0.00000000 </i>
   <i name="total">    -13.62165208 </i>
  </energy>
  <time name="totalsc">    0.29    0.32</time>
 </calculation>
 <calculation>
  <scstep>
   <time name="dav">    0.02    0.02</time>
   <time name="total">    0.05    0.05</time>
   <energy>
    <i name="alphaZ">      0.87564028 </i>
    <i name="ewald">     -5.96086588 </i>
    <i name="hartreedc">   -390.08323428 </i>
    <i name="XCdc">     34.58097533 </i>
    <i name="pawpsdc">    355.38540605 </i>
    <i name="pawaedc">   -357.59889545 </i>
    <i name="eentropy">     -0.00000000 </i>
    <i name="bandstr">   -108.40566539 </i>
    <i name="atom">    457.22046137 </i>
    <i name="e_fr_energy">    -13.98617799 </i>
    <i name="e_wo_entrp">    -13.98617799 </i>
    <i name="e_0_energy">    -13.98617799 </i>
   </energy>
  </scstep>
  <scstep>
   <time name="dav">    0.05    0.05</time>
   <time name="total">    0.08    0.08</time>
   <energy>
    <i name="e_fr_energy">    -13.98103138 </i>
    <i name="e_wo_entrp">    -13.98103138 </i>
    <i name="e_0_energy">    -13.98103138 </i>
   </energy>
  </scstep>
  <scstep>
   <time name="dav">    0.05    0.05</time>
   <time name="total">    0.07    0.08</time>
   <energy>
    <i name="e_fr_energy">    -13.98153081 </i>
    <i name="e_wo_entrp">    -13.98153081 </i>
    <i name="e_0_energy">    -13.98153081 </i>
   </energy>
  </scstep>
  <scstep>
   <time name="dav">    0.05    0.05</time>
   <time name="total">    0.08    0.08</time>
   <energy>
    <i name="e_fr_energy">    -13.98212911 </i>
    <i name="e_wo_entrp">    -13.98212911 </i>
    <i name="e_0_energy">    -13.98212911 </i>
   </energy>
  </scstep>
  <scstep>
   <time name="dav">    0.05    0.05</time>
   <time name="total">    0.07    0.07</time>
   <energy>
    <i name="alphaZ">      0.87564028 </i>
    <i name="ewald">     -5.96086588 </i>
    <i name="hartreedc">   -388.74610970 </i>
    <i name="XCdc">     34.51198264 </i>
    <i name="pawpsdc">    344.74627251 </i>
    <i name="pawaedc">   -346.90431301 </i>
    <i name="eentropy">     -0.00000000 </i>
    <i name="bandstr">   -109.72527111 </i>
    <i name="atom">    457.22046137 </i>
    <i name="e_fr_energy">    -13.98220289 </i>
    <i name="e_wo_entrp">    -13.98220289 </i>
    <i name="e_0_energy">    -13.98220289 </i>
   </energy>
  </scstep>
  <structure>
   <crystal>
    <varray name="basis" >
     <v>       6.35016000       0.00000000       0.00000000 </v>
     <v>       0.00000000       6.35016000       0.00000000 </v>
     <v>       0.00000000       0.00000000       6.35016000 </v>
    </varray>
    <i name="volume">    256.06723029 </i>
    <varray name="rec_basis" >
     <v>       0.15747635       0.00000000       0.00000000 </v>
     <v>       0.00000000       0.15747635       0.00000000 </v>
     <v>       0.00000000       0.00000000       0.15747635 </v>
    </varray>
   </crystal>
   <varray name="positions" >
    <v>       0.00753419       0.01655251       0.00000000 </v>
    <v>       0.14963170       0.00364959       0.00000000 </v>
    <v>       0.00640422       0.16354762       0.00000000 </v>
   </varray>
  </structure>
  <varray name="forces" >
   <v>      -3.40003127      -1.10540975       0.00000000 </v>
   <v>       4.38639782      -1.39492106       0.00000000 </v>
   <v>      -0.98521845       2.49731318       0.00000000 </v>
  </varray>
  <energy>
   <i name="e_fr_energy">    -13.98220289 </i>
   <i name="e_wo_entrp">    -13.98220289 </i>
   <i name="e_0_energy">     -0.00000000 </i>
   <i name="kinetic">      0.35502919 </i>
   <i name="lattice kinetic">      0.00000000 </i>
   <i name="nosepot">      0.00000000 </i>
   <i name="nosekinetic">      0.00000000 </i>
   <i name="total">    -13.62717370 </i>
  </energy>
  <time name="totalsc">    0.39    0.42</time>
 </calculation>
 <calculation>
  <scstep>
   <time name="dav">    0.03    0.03</time>
   <time name="total">    0.06    0.06</time>
   <energy>
    <i name="alphaZ">      0.87564028 </i>
    <i name="ewald">    -13.45997643 </i>
    <i name="hartreedc">   -383.22741849 </i>
    <i name="XCdc">     34.22561633 </i>
    <i name="pawpsdc">    333.53966157 </i>
    <i name="pawaedc">   -335.64824978 </i>
    <i name="eentropy">     -0.00000000 </i>
    <i name="bandstr">   -107.69662819 </i>
    <i name="atom">    457.22046137 </i>
    <i name="e_fr_energy">    -14.17089334 </i>
    <i name="e_wo_entrp">    -14.17089334 </i>
    <i name="e_0_energy">    -14.17089334 </i>
   </energy>
  </scstep>
  <scstep>
   <time name="dav">    0.05    0.05</time>
   <time name="total">    0.08    0.08</time>
   <energy>
    <i name="e_fr_energy">    -14.17178692 </i>
    <i name="e_wo_entrp">    -14.17178692 </i>
    <i name="e_0_energy">    -14.17178692 </i>
   </energy>
  </scstep>
  <scstep>
   <time name="dav">    0.03    0.03</time>
   <time name="total">    0.06    0.06</time>
   <energy>
    <i name="e_fr_energy">    -14.17193156 </i>
    <i name="e_wo_entrp">    -14.17193156 </i>
    <i name="e_0_energy">    -14.17193156 </i>
   </energy>
  </scstep>
  <scstep>
   <time name="dav">    0.05    0.05</time>
   <time name="total">    0.07    0.07</time>
   <energy>
    <i name="alphaZ">      0.87564028 </i>
    <i name="ewald">    -13.45997643 </i>
    <i name="hartreedc">   -383.13435740 </i>
    <i name="XCdc">     34.21959616 </i>
    <i name="pawpsdc">    333.14780772 </i>
    <i name="pawaedc">   -335.25786436 </i>
    <i name="eentropy">     -0.00000000 </i>
[...]
       <r>     2.8956  1352.6055  1690.1213 </r>
       <r>     3.0124  1488.4287  1862.0320 </r>
       <r>     3.1293  1035.9708  1981.8192 </r>
       <r>     3.2461   617.6943  2052.6377 </r>
       <r>     3.3630   586.2044  2119.8730 </r>
       <r>     3.4798   458.7638  2173.1687 </r>
       <r>     3.5966   191.5911  2195.6811 </r>
       <r>     3.7135    35.1661  2199.8351 </r>
       <r>     3.8303     1.4458  2200.0057 </r>
       <r>     3.9472     3.0474  2200.3489 </r>
       <r>     4.0640    24.0646  2203.0593 </r>
       <r>     4.1808    54.7784  2209.2325 </r>
       <r>     4.2977    86.9972  2219.0525 </r>
       <r>     4.4145   135.3238  2234.3671 </r>
       <r>     4.5314   134.5558  2249.6739 </r>
       <r>     4.6482   165.2127  2268.5885 </r>
       <r>     4.7651   193.1459  2290.7962 </r>
       <r>     4.8819   223.0405  2316.5001 </r>
       <r>     4.9987   236.0320  2343.7460 </r>
       <r>     5.1156   180.2238  2364.6991 </r>
       <r>     5.2324   115.2066  2378.0789 </r>
       <r>     5.3493   135.2706  2393.6756 </r>
       <r>     5.4661   217.0446  2418.6120 </r>
       <r>     5.5830   451.6322  2470.1299 </r>
       <r>     5.6998  1003.0917  2585.2664 </r>
       <r>     5.8166   841.5250  2682.6054 </r>
       <r>     5.9335   896.6606  2785.9405 </r>
       <r>     6.0503  1280.3909  2932.9732 </r>
       <r>     6.1672   801.9073  3025.2339 </r>
       <r>     6.2840   533.7959  3087.1206 </r>
       <r>     6.4008   498.4537  3144.7142 </r>
       <r>     6.5177   497.5254  3201.9508 </r>
       <r>     6.6345  1298.1910  3351.4472 </r>
       <r>     6.7514  1773.0235  3555.5737 </r>
       <r>     6.8682   377.2663  3598.9541 </r>
       <r>     6.9851     9.0995  3599.9976 </r>
       <r>     7.1019     0.0209  3600.0000 </r>
       <r>     7.2187     0.0000  3600.0000 </r>
       <r>     7.3356     0.0000  3600.0000 </r>
       <r>     7.4524     0.0000  3600.0000 </r>
       <r>     7.5693     0.0000  3600.0000 </r>
       <r>     7.6861     0.0000  3600.0000 </r>
       <r>     7.8029     0.0000  3600.0000 </r>
       <r>     7.9198     0.0000  3600.0000 </r>
       <r>     8.0366     0.0000  3600.0000 </r>
       <r>     8.1535     0.0000  3600.0000 </r>
       <r>     8.2703     0.0000  3600.0000 </r>
      </set>
     </set>
    </array>
   </total>
  </dos>
  <time name="totalsc">    0.35    0.38</time>
  <eigenvalues>
   <array>
    <dimension dim="1">band</dimension>
    <dimension dim="2">kpoint</dimension>
    <dimension dim="3">spin</dimension>
    <field>eigene</field>
    <field>occ</field>
    <set>
     <set comment="spin 1">
      <set comment="kpoint 1">
       <r>  -24.6839    1.0000 </r>
       <r>  -11.9971    1.0000 </r>
       <r>   -9.2673    1.0000 </r>
       <r>   -6.8071    1.0000 </r>
       <r>   -1.3458    0.0000 </r>
       <r>    1.7305    0.0000 </r>
       <r>    1.9968    0.0000 </r>
       <r>    2.7219    0.0000 </r>
       <r>    2.8720    0.0000 </r>
       <r>    3.0643    0.0000 </r>
       <r>    3.2938    0.0000 </r>
       <r>    4.4662    0.0000 </r>
       <r>    5.6456    0.0000 </r>
       <r>    5.9042    0.0000 </r>
       <r>    5.9694    0.0000 </r>
       <r>    6.1223    0.0000 </r>
       <r>    6.6005    0.0000 </r>
       <r>    6.6056    0.0000 </r>
      </set>
     </set>
    </set>
   </array>
  </eigenvalues>
  <separator name="orbital magnetization" >
   <v name="MAGDIPOLOUT">      0.00000000      0.00000000      0.00000000</v>
  </separator>
  <dos>
   <i name="efermi">     -6.27853087 </i>
   <total>
    <array>
     <dimension dim="1">gridpoints</dimension>
     <dimension dim="2">spin</dimension>
     <field>energy</field>
     <field>total</field>
     <field>integrated</field>
     <set>
      <set comment="spin 1">
       <r>   -26.2484     0.0000     0.0000 </r>
       <r>   -26.1337     0.0000     0.0000 </r>
       <r>   -26.0190     0.0000     0.0000 </r>
       <r>   -25.9042     0.0000     0.0000 </r>
       <r>   -25.7895     0.0000     0.0000 </r>
       <r>   -25.6748     0.0000     0.0000 </r>
       <r>   -25.5600     0.0000     0.0000 </r>
       <r>   -25.4453     0.0000     0.0000 </r>
       <r>   -25.3306     0.0000     0.0000 </r>
       <r>   -25.2159     0.0000     0.0000 </r>
       <r>   -25.1011     0.0000     0.0000 </r>
       <r>   -24.9864     0.0002     0.0000 </r>
       <r>   -24.8717     0.0690     0.0079 </r>
       <r>   -24.7569     2.5618     0.3018 </r>
       <r>   -24.6422     9.9624     1.4448 </r>
       <r>   -24.5275     4.6044     1.9731 </r>
       <r>   -24.4128     0.2337     1.9999 </r>
       <r>   -24.2980     0.0011     2.0000 </r>
       <r>   -24.1833     0.0000     2.0000 </r>
       <r>   -24.0686     0.0000     2.0000 </r>
       <r>   -23.9538     0.0000     2.0000 </r>
       <r>   -23.8391     0.0000     2.0000 </r>
       <r>   -23.7244     0.0000     2.0000 </r>
       <r>   -23.6097     0.0000     2.0000 </r>
       <r>   -23.4949     0.0000     2.0000 </r>
       <r>   -23.3802     0.0000     2.0000 </r>
       <r>   -23.2655     0.0000     2.0000 </r>
       <r>   -23.1508     0.0000     2.0000 </r>
       <r>   -23.0360     0.0000     2.0000 </r>
       <r>   -22.9213     0.0000     2.0000 </r>
       <r>   -22.8066     0.0000     2.0000 </r>
       <r>   -22.6918     0.0000     2.0000 </r>
       <r>   -22.5771     0.0000     2.0000 </r>
       <r>   -22.4624     0.0000     2.0000 </r>
       <r>   -22.3477     0.0000     2.0000 </r>
       <r>   -22.2329     0.0000     2.0000 </r>
       <r>   -22.1182     0.0000     2.0000 </r>
       <r>   -22.0035     0.0000     2.0000 </r>
       <r>   -21.8887     0.0000     2.0000 </r>
       <r>   -21.7740     0.0000     2.0000 </r>
       <r>   -21.6593     0.0000     2.0000 </r>
       <r>   -21.5446     0.0000     2.0000 </r>
       <r>   -21.4298     0.0000     2.0000 </r>
       <r>   -21.3151     0.0000     2.0000 </r>
       <r>   -21.2004     0.0000     2.0000 </r>
       <r>   -21.0856     0.0000     2.0000 </r>
       <r>   -20.9709     0.0000     2.0000 </r>
       <r>   -20.8562     0.0000     2.0000 </r>
       <r>   -20.7415     0.0000     2.0000 </r>
       <r>   -20.6267     0.0000     2.0000 </r>
       <r>   -20.5120     0.0000     2.0000 </r>
       <r>   -20.3973     0.0000     2.0000 </r>
       <r>   -20.2825     0.0000     2.0000 </r>
       <r>   -20.1678     0.0000     2.0000 </r>
       <r>   -20.0531     0.0000     2.0000 </r>
       <r>   -19.9384     0.0000     2.0000 </r>
       <r>   -19.8236     0.0000     2.0000 </r>
       <r>   -19.7089     0.0000     2.0000 </r>
       <r>   -19.5942     0.0000     2.0000 </r>
       <r>   -19.4794     0.0000     2.0000 </r>
       <r>   -19.3647     0.0000     2.0000 </r>
       <r>   -19.2500     0.0000     2.0000 </r>
       <r>   -19.1353     0.0000     2.0000 </r>
       <r>   -19.0205     0.0000     2.0000 </r>
       <r>   -18.9058     0.0000     2.0000 </r>
       <r>   -18.7911     0.0000     2.0000 </r>
       <r>   -18.6764     0.0000     2.0000 </r>
       <r>   -18.5616     0.0000     2.0000 </r>
       <r>   -18.4469     0.0000     2.0000 </r>
       <r>   -18.3322     0.0000     2.0000 </r>
       <r>   -18.2174     0.0000     2.0000 </r>
       <r>   -18.1027     0.0000     2.0000 </r>
       <r>   -17.9880     0.0000     2.0000 </r>
       <r>   -17.8733     0.0000     2.0000 </r>
       <r>   -17.7585     0.0000     2.0000 </r>
       <r>   -17.6438     0.0000     2.0000 </r>
       <r>   -17.5291     0.0000     2.0000 </r>
       <r>   -17.4143     0.0000     2.0000 </r>
       <r>   -17.2996     0.0000     2.0000 </r>
       <r>   -17.1849     0.0000     2.0000 </r>
       <r>   -17.0702     0.0000     2.0000 </r>
       <r>   -16.9554     0.0000     2.0000 </r>
       <r>   -16.8407     0.0000     2.0000 </r>
       <r>   -16.7260     0.0000     2.0000 </r>
       <r>   -16.6112     0.0000     2.0000 </r>
       <r>   -16.4965     0.0000     2.0000 </r>
       <r>   -16.3818     0.0000     2.0000 </r>
       <r>   -16.2671     0.0000     2.0000 </r>
       <r>   -16.1523     0.0000     2.0000 </r>
       <r>   -16.0376     0.0000     2.0000 </r>
       <r>   -15.9229     0.0000     2.0000 </r>
       <r>   -15.8081     0.0000     2.0000 </r>
       <r>   -15.6934     0.0000     2.0000 </r>
       <r>   -15.5787     0.0000     2.0000 </r>
       <r>   -15.4640     0.0000     2.0000 </r>
       <r>   -15.3492     0.0000     2.0000 </r>
       <r>   -15.2345     0.0000     2.0000 </r>
       <r>   -15.1198     0.0000     2.0000 </r>
       <r>   -15.0050     0.0000     2.0000 </r>
       <r>   -14.8903     0.0000     2.0000 </r>
       <r>   -14.7756     0.0000     2.0000 </r>
       <r>   -14.6609     0.0000     2.0000 </r>
       <r>   -14.5461     0.0000     2.0000 </r>
       <r>   -14.4314     0.0000     2.0000 </r>
       <r>   -14.3167     0.0000     2.0000 </r>
       <r>   -14.2019     0.0000     2.0000 </r>
       <r>   -14.0872     0.0000     2.0000 </r>
       <r>   -13.9725     0.0000     2.0000 </r>
       <r>   -13.8578     0.0000     2.0000 </r>
       <r>   -13.7430     0.0000     2.0000 </r>
       <r>   -13.6283     0.0000     2.0000 </r>
       <r>   -13.5136     0.0000     2.0000 </r>
       <r>   -13.3989     0.0000     2.0000 </r>
       <r>   -13.2841     0.0000     2.0000 </r>
       <r>   -13.1694     0.0000     2.0000 </r>
       <r>   -13.0547     0.0000     2.0000 </r>
       <r>   -12.9399     0.0000     2.0000 </r>
       <r>   -12.8252     0.0000     2.0000 </r>
       <r>   -12.7105     0.0000     2.0000 </r>
       <r>   -12.5958     0.0000     2.0000 </r>
       <r>   -12.4810     0.0000     2.0000 </r>
       <r>   -12.3663     0.0000     2.0000 </r>
       <r>   -12.2516     0.0028     2.0003 </r>
       <r>   -12.1368     0.4167     2.0481 </r>
       <r>   -12.0221     5.8868     2.7235 </r>
       <r>   -11.9074     9.3434     3.7955 </r>
       <r>   -11.7927     1.7494     3.9962 </r>
       <r>   -11.6779     0.0334     4.0000 </r>
       <r>   -11.5632     0.0001     4.0000 </r>
       <r>   -11.4485     0.0000     4.0000 </r>
       <r>   -11.3337     0.0000     4.0000 </r>
       <r>   -11.2190     0.0000     4.0000 </r>
       <r>   -11.1043     0.0000     4.0000 </r>
       <r>   -10.9896     0.0000     4.0000 </r>
       <r>   -10.8748     0.0000     4.0000 </r>
       <r>   -10.7601     0.0000     4.0000 </r>
       <r>   -10.6454     0.0000     4.0000 </r>
       <r>   -10.5306     0.0000     4.0000 </r>
       <r>   -10.4159     0.0000     4.0000 </r>
       <r>   -10.3012     0.0000     4.0000 </r>
       <r>   -10.1865     0.0000     4.0000 </r>
       <r>   -10.0717     0.0000     4.0000 </r>
       <r>    -9.9570     0.0000     4.0000 </r>
       <r>    -9.8423     0.0000     4.0000 </r>
       <r>    -9.7275     0.0000     4.0000 </r>
       <r>    -9.6128     0.0000     4.0000 </r>
       <r>    -9.4981     0.0096     4.0011 </r>
       <r>    -9.3834     0.8677     4.1006 </r>
       <r>    -9.2686     7.7053     4.9847 </r>
       <r>    -9.1539     7.9010     5.8911 </r>
       <r>    -9.0392     0.9380     5.9987 </r>
       <r>    -8.9245     0.0109     6.0000 </r>
       <r>    -8.8097     0.0000     6.0000 </r>
       <r>    -8.6950     0.0000     6.0000 </r>
       <r>    -8.5803     0.0000     6.0000 </r>
       <r>    -8.4655     0.0000     6.0000 </r>
       <r>    -8.3508     0.0000     6.0000 </r>
       <r>    -8.2361     0.0000     6.0000 </r>
       <r>    -8.1214     0.0000     6.0000 </r>
       <r>    -8.0066     0.0000     6.0000 </r>
       <r>    -7.8919     0.0000     6.0000 </r>
       <r>    -7.7772     0.0000     6.0000 </r>
       <r>    -7.6624     0.0000     6.0000 </r>
       <r>    -7.5477     0.0000     6.0000 </r>
       <r>    -7.4330     0.0000     6.0000 </r>
       <r>    -7.3183     0.0000     6.0000 </r>
       <r>    -7.2035     0.0000     6.0000 </r>
       <r>    -7.0888     0.0006     6.0001 </r>
       <r>    -6.9741     0.1582     6.0182 </r>
       <r>    -6.8593     3.8514     6.4601 </r>
       <r>    -6.7446    10.1379     7.6232 </r>
       <r>    -6.6299     3.1780     7.9878 </r>
       <r>    -6.5152     0.1060     8.0000 </r>
       <r>    -6.4004     0.0003     8.0000 </r>
       <r>    -6.2857     0.0000     8.0000 </r>
       <r>    -6.1710     0.0000     8.0000 </r>
       <r>    -6.0562     0.0000     8.0000 </r>
       <r>    -5.9415     0.0000     8.0000 </r>
       <r>    -5.8268     0.0000     8.0000 </r>
       <r>    -5.7121     0.0000     8.0000 </r>
       <r>    -5.5973     0.0000     8.0000 </r>
       <r>    -5.4826     0.0000     8.0000 </r>
       <r>    -5.3679     0.0000     8.0000 </r>
       <r>    -5.2531     0.0000     8.0000 </r>
       <r>    -5.1384     0.0000     8.0000 </r>
       <r>    -5.0237     0.0000     8.0000 </r>
       <r>    -4.9090     0.0000     8.0000 </r>
       <r>    -4.7942     0.0000     8.0000 </r>
       <r>    -4.6795     0.0000     8.0000 </r>
       <r>    -4.5648     0.0000     8.0000 </r>
       <r>    -4.4500     0.0000     8.0000 </r>
       <r>    -4.3353     0.0000     8.0000 </r>
       <r>    -4.2206     0.0000     8.0000 </r>
       <r>    -4.1059     0.0000     8.0000 </r>
       <r>    -3.9911     0.0000     8.0000 </r>
       <r>    -3.8764     0.0000     8.0000 </r>
       <r>    -3.7617     0.0000     8.0000 </r>
       <r>    -3.6470     0.0000     8.0000 </r>
       <r>    -3.5322     0.0000     8.0000 </r>
       <r>    -3.4175     0.0000     8.0000 </r>
       <r>    -3.3028     0.0000     8.0000 </r>
       <r>    -3.1880     0.0000     8.0000 </r>
       <r>    -3.0733     0.0000     8.0000 </r>
       <r>    -2.9586     0.0000     8.0000 </r>
       <r>    -2.8439     0.0000     8.0000 </r>
       <r>    -2.7291     0.0000     8.0000 </r>
       <r>    -2.6144     0.0000     8.0000 </r>
       <r>    -2.4997     0.0000     8.0000 </r>
       <r>    -2.3849     0.0000     8.0000 </r>
       <r>    -2.2702     0.0000     8.0000 </r>
       <r>    -2.1555     0.0000     8.0000 </r>
       <r>    -2.0408     0.0000     8.0000 </r>
       <r>    -1.9260     0.0000     8.0000 </r>
       <r>    -1.8113     0.0000     8.0000 </r>
       <r>    -1.6966     0.0000     8.0000 </r>
       <r>    -1.5818     0.0073     8.0008 </r>
       <r>    -1.4671     0.7442     8.0862 </r>
       <r>    -1.3524     7.3178     8.9258 </r>
       <r>    -1.2377     8.2634     9.8738 </r>
       <r>    -1.1229     1.0857     9.9984 </r>
       <r>    -1.0082     0.0141    10.0000 </r>
       <r>    -0.8935     0.0000    10.0000 </r>
       <r>    -0.7787     0.0000    10.0000 </r>
       <r>    -0.6640     0.0000    10.0000 </r>
       <r>    -0.5493     0.0000    10.0000 </r>
       <r>    -0.4346     0.0000    10.0000 </r>
       <r>    -0.3198     0.0000    10.0000 </r>
       <r>    -0.2051     0.0000    10.0000 </r>
       <r>    -0.0904     0.0000    10.0000 </r>
       <r>     0.0244     0.0000    10.0000 </r>
       <r>     0.1391     0.0000    10.0000 </r>
       <r>     0.2538     0.0000    10.0000 </r>
       <r>     0.3685     0.0000    10.0000 </r>
       <r>     0.4833     0.0000    10.0000 </r>
       <r>     0.5980     0.0000    10.0000 </r>
       <r>     0.7127     0.0000    10.0000 </r>
       <r>     0.8274     0.0000    10.0000 </r>
       <r>     0.9422     0.0000    10.0000 </r>
       <r>     1.0569     0.0000    10.0000 </r>
       <r>     1.1716     0.0000    10.0000 </r>
       <r>     1.2864     0.0000    10.0000 </r>
       <r>     1.4011     0.0000    10.0000 </r>
       <r>     1.5158     0.0209    10.0024 </r>
       <r>     1.6305     1.3514    10.1574 </r>
       <r>     1.7453     8.7886    11.1657 </r>
       <r>     1.8600     7.1491    11.9859 </r>
       <r>     1.9747     6.6963    12.7542 </r>
       <r>     2.0895     9.2013    13.8098 </r>
       <r>     2.2042     1.6281    13.9966 </r>
       <r>     2.3189     0.0293    14.0000 </r>
       <r>     2.4336     0.0004    14.0000 </r>
       <r>     2.5484     0.1230    14.0142 </r>
       <r>     2.6631     3.4432    14.4092 </r>
       <r>     2.7778    11.7255    15.7544 </r>
       <r>     2.8926    12.8455    17.2282 </r>
       <r>     3.0073     9.9061    18.3647 </r>
       <r>     3.1220    10.7731    19.6007 </r>
       <r>     3.2367     7.0112    20.4051 </r>
       <r>     3.3515    10.2871    21.5853 </r>
       <r>     3.4662     3.4862    21.9852 </r>
       <r>     3.5809     0.1282    22.0000 </r>
       <r>     3.6957     0.0004    22.0000 </r>
       <r>     3.8104     0.0000    22.0000 </r>
       <r>     3.9251     0.0000    22.0000 </r>
       <r>     4.0398     0.0000    22.0000 </r>
       <r>     4.1546     0.0001    22.0000 </r>
       <r>     4.2693     0.0466    22.0054 </r>
       <r>     4.3840     2.0911    22.2453 </r>
       <r>     4.4988     9.6719    23.3549 </r>
       <r>     4.6135     5.2982    23.9628 </r>
       <r>     4.7282     0.3228    23.9998 </r>
       <r>     4.8429     0.0018    24.0000 </r>
       <r>     4.9577     0.0000    24.0000 </r>
       <r>     5.0724     0.0000    24.0000 </r>
       <r>     5.1871     0.0000    24.0000 </r>
       <r>     5.3018     0.0000    24.0000 </r>
       <r>     5.4166     0.0104    24.0012 </r>
       <r>     5.5313     0.9126    24.1059 </r>
       <r>     5.6460     7.8343    25.0047 </r>
       <r>     5.7608     8.1713    25.9422 </r>
       <r>     5.8755     8.0717    26.8682 </r>
       <r>     5.9902    19.1844    29.0692 </r>
       <r>     6.1049    14.6174    30.7463 </r>
       <r>     6.2197     9.4557    31.8311 </r>
       <r>     6.3344     1.4513    31.9976 </r>
       <r>     6.4491     0.5371    32.0592 </r>
       <r>     6.5639     9.5889    33.1593 </r>
       <r>     6.6786    19.7795    35.4286 </r>
       <r>     6.7933     4.8557    35.9857 </r>
       <r>     6.9080     0.1246    36.0000 </r>
       <r>     7.0228     0.0003    36.0000 </r>
       <r>     7.1375     0.0000    36.0000 </r>
       <r>     7.2522     0.0000    36.0000 </r>
       <r>     7.3670     0.0000    36.0000 </r>
       <r>     7.4817     0.0000    36.0000 </r>
       <r>     7.5964     0.0000    36.0000 </r>
       <r>     7.7111     0.0000    36.0000 </r>
       <r>     7.8259     0.0000    36.0000 </r>
       <r>     7.9406     0.0000    36.0000 </r>
       <r>     8.0553     0.0000    36.0000 </r>
       <r>     8.1701     0.0000    36.0000 </r>
      </set>
     </set>
    </array>
   </total>
  </dos>
 </calculation>
 <structure name="finalpos" >
  <crystal>
   <varray name="basis" >
    <v>       6.35016000       0.00000000       0.00000000 </v>
    <v>       0.00000000       6.35016000       0.00000000 </v>
    <v>       0.00000000       0.00000000       6.35016000 </v>
   </varray>
   <i name="volume">    256.06723029 </i>
   <varray name="rec_basis" >
    <v>       0.15747635       0.00000000       0.00000000 </v>
    <v>       0.00000000       0.15747635       0.00000000 </v>
    <v>       0.00000000       0.00000000       0.15747635 </v>
   </varray>
  </crystal>
  <varray name="positions" >
   <v>       0.04560637       0.15227080       0.00000000 </v>
   <v>       0.89675167       0.09332534       0.00000000 </v>
   <v>       0.11974552       0.01223242       0.00000000 </v>
  </varray>
  <varray name="selective"  type="logical" >
   <v type="logical" >  T  T  F </v>
   <v type="logical" >  T  T  F </v>
   <v type="logical" >  T  T  F </v>
  </varray>
  <varray name="velocities" >
   <v>      -0.00007436       0.00238480       0.00000000 </v>
   <v>      -0.00203811      -0.00774557       0.00000000 </v>
   <v>       0.00910011      -0.00493050       0.00000000 </v>
  </varray>
  <nose>
   <v>      -3.00000000       0.00000000    2000.00000000    2000.00000000 </v>
  </nose>
 </structure>
</modeling>
