unknown system                          
           1
     6.350160    0.000000    0.000000
     0.000000    6.350160    0.000000
     0.000000    0.000000    6.350160
   O    H 
   1   2
Direct configuration=     1
   0.00000000  0.00000000  0.00000000
   0.09166667  0.88083333  0.00000000
   0.09166667  0.11916667  0.00000000
Direct configuration=     2
   0.00015815  0.00128351  0.00000000
   0.10076659  0.87541625  0.00000000
   0.08556840  0.12948722  0.00000000
Direct configuration=     3
   0.00041122  0.00242970  0.00000000
   0.10818992  0.87290188  0.00000000
   0.07962490  0.13909966  0.00000000
Direct configuration=     4
   0.00085957  0.00342571  0.00000000
   0.11279163  0.87509742  0.00000000
   0.07337559  0.14639385  0.00000000
Direct configuration=     5
   0.00152508  0.00430298  0.00000000
   0.11432799  0.88239043  0.00000000
   0.06671544  0.15047057  0.00000000
Direct configuration=     6
   0.00235877  0.00510987  0.00000000
   0.11335977  0.89404239  0.00000000
   0.05986317  0.15130996  0.00000000
Direct configuration=     7
   0.00322031  0.00592412  0.00000000
   0.11171960  0.90787645  0.00000000
   0.05323017  0.14985029  0.00000000
Direct configuration=     8
   0.00383829  0.00686537  0.00000000
   0.11324340  0.91999725  0.00000000
   0.04732272  0.14806868  0.00000000
Direct configuration=     9
   0.00394713  0.00797348  0.00000000
   0.12173585  0.92723369  0.00000000
   0.04257772  0.14850681  0.00000000
Direct configuration=    10
   0.00365566  0.00904995  0.00000000
   0.13536408  0.93126796  0.00000000
   0.03908818  0.15263491  0.00000000
Direct configuration=    11
   0.00330809  0.00995272  0.00000000
   0.14905909  0.93550095  0.00000000
   0.03642568  0.15935540  0.00000000
Direct configuration=    12
   0.00316329  0.01072745  0.00000000
   0.15929148  0.94172825  0.00000000
   0.03396909  0.16613611  0.00000000
Direct configuration=    13
   0.00335201  0.01148033  0.00000000
   0.16443980  0.95037191  0.00000000
   0.03125687  0.17085320  0.00000000
Direct configuration=    14
   0.00391517  0.01229634  0.00000000
   0.16412018  0.96113219  0.00000000
   0.02801805  0.17245170  0.00000000
Direct configuration=    15
   0.00481668  0.01322472  0.00000000
   0.15906827  0.97320470  0.00000000
   0.02409451  0.17094673  0.00000000
Direct configuration=    16
   0.00591446  0.01427719  0.00000000
   0.15170185  0.98529411  0.00000000
   0.01934231  0.16744607  0.00000000
Direct configuration=    17
   0.00692218  0.01541945  0.00000000
   0.14682759  0.99578547  0.00000000
   0.01354447  0.16411134  0.00000000
Direct configuration=    18
   0.00753419  0.01655251  0.00000000
   0.14963170  0.00364959  0.00000000
   0.00640422  0.16354762  0.00000000
Direct configuration=    19
   0.00782332  0.01758060  0.00000000
   0.15910058  0.00939426  0.00000000
   0.99776702  0.16677836  0.00000000
Direct configuration=    20
   0.00811593  0.01854098  0.00000000
   0.16967236  0.01407641  0.00000000
   0.98797035  0.17215820  0.00000000
Direct configuration=    21
   0.00862632  0.01955897  0.00000000
   0.17711479  0.01842364  0.00000000
   0.97781606  0.17694812  0.00000000
Direct configuration=    22
   0.00942132  0.02073997  0.00000000
   0.17945278  0.02282353  0.00000000
   0.96822600  0.17906768  0.00000000
Direct configuration=    23
   0.01048114  0.02213065  0.00000000
   0.17628323  0.02747040  0.00000000
   0.95992706  0.17757375  0.00000000
Direct configuration=    24
   0.01172354  0.02372001  0.00000000
   0.16850251  0.03246537  0.00000000
   0.95332298  0.17254640  0.00000000
Direct configuration=    25
   0.01298232  0.02543530  0.00000000
   0.15887564  0.03792526  0.00000000
   0.94831316  0.16504357  0.00000000
Direct configuration=    26
   0.01397976  0.02712023  0.00000000
   0.15268896  0.04421679  0.00000000
   0.94405264  0.15719941  0.00000000
Direct configuration=    27
   0.01450619  0.02855897  0.00000000
   0.15482818  0.05200414  0.00000000
   0.93901299  0.15180546  0.00000000
Direct configuration=    28
   0.01477062  0.02963611  0.00000000
   0.16309703  0.06135219  0.00000000
   0.93204467  0.15062404  0.00000000
Direct configuration=    29
   0.01510226  0.03046746  0.00000000
   0.17151672  0.07147037  0.00000000
   0.92385405  0.15261000  0.00000000
Direct configuration=    30
   0.01562603  0.03126271  0.00000000
   0.17613674  0.08149990  0.00000000
   0.91637336  0.15526538  0.00000000
Direct configuration=    31
   0.01634139  0.03218559  0.00000000
   0.17533307  0.09080143  0.00000000
   0.91126030  0.15659629  0.00000000
Direct configuration=    32
   0.01720690  0.03332302  0.00000000
   0.16897751  0.09897881  0.00000000
   0.90930633  0.15561916  0.00000000
Direct configuration=    33
   0.01815654  0.03468475  0.00000000
   0.15820434  0.10597508  0.00000000
   0.91041805  0.15222708  0.00000000
Direct configuration=    34
   0.01908697  0.03618705  0.00000000
   0.14573249  0.11243956  0.00000000
   0.91352841  0.14711198  0.00000000
Direct configuration=    35
   0.01986535  0.03761900  0.00000000
   0.13593425  0.12016305  0.00000000
   0.91639198  0.14185533  0.00000000
Direct configuration=    36
   0.02046441  0.03873176  0.00000000
   0.13226188  0.13104413  0.00000000
   0.91600820  0.13854341  0.00000000
Direct configuration=    37
   0.02106942  0.03952966  0.00000000
   0.13334069  0.14413868  0.00000000
   0.91077598  0.13803980  0.00000000
Direct configuration=    38
   0.02181423  0.04029135  0.00000000
   0.13544450  0.15655631  0.00000000
   0.90227379  0.13879479  0.00000000
Direct configuration=    39
   0.02268024  0.04129326  0.00000000
   0.13593396  0.16606018  0.00000000
   0.89344398  0.13862313  0.00000000
Direct configuration=    40
   0.02359691  0.04268787  0.00000000
   0.13362764  0.17158023  0.00000000
   0.88660041  0.13616340  0.00000000
Direct configuration=    41
   0.02449898  0.04451247  0.00000000
   0.12836364  0.17297048  0.00000000
   0.88296414  0.13097203  0.00000000
Direct configuration=    42
   0.02532849  0.04670663  0.00000000
   0.12081627  0.17097948  0.00000000
   0.88277069  0.12325315  0.00000000
Direct configuration=    43
   0.02602616  0.04909266  0.00000000
   0.11275362  0.16773807  0.00000000
   0.88520664  0.11371611  0.00000000
Direct configuration=    44
   0.02654236  0.05135564  0.00000000
   0.10709923  0.16712976  0.00000000
   0.88814541  0.10351702  0.00000000
Direct configuration=    45
   0.02693647  0.05319481  0.00000000
   0.10610103  0.17264391  0.00000000
   0.88839834  0.09397825  0.00000000
Direct configuration=    46
   0.02742876  0.05464686  0.00000000
   0.10826566  0.18295469  0.00000000
   0.88393816  0.08581966  0.00000000
Direct configuration=    47
   0.02812157  0.05598429  0.00000000
   0.11022941  0.19391453  0.00000000
   0.87645258  0.07883394  0.00000000
Direct configuration=    48
   0.02893796  0.05741420  0.00000000
   0.10972169  0.20251648  0.00000000
   0.86946778  0.07271860  0.00000000
Direct configuration=    49
   0.02976715  0.05902333  0.00000000
   0.10582092  0.20739084  0.00000000
   0.86569058  0.06747485  0.00000000
Direct configuration=    50
   0.03053197  0.06081439  0.00000000
   0.09851240  0.20834933  0.00000000
   0.86635536  0.06324169  0.00000000
Direct configuration=    51
   0.03119003  0.06272305  0.00000000
   0.08849978  0.20632597  0.00000000
   0.87142812  0.06011066  0.00000000
Direct configuration=    52
   0.03173876  0.06460048  0.00000000
   0.07720956  0.20379872  0.00000000
   0.87953356  0.05797955  0.00000000
Direct configuration=    53
   0.03226171  0.06622480  0.00000000
   0.06643111  0.20475891  0.00000000
   0.88755074  0.05640554  0.00000000
Direct configuration=    54
   0.03297367  0.06748647  0.00000000
   0.05706362  0.21174622  0.00000000
   0.89115090  0.05460046  0.00000000
Direct configuration=    55
   0.03403789  0.06857252  0.00000000
   0.04859398  0.22241283  0.00000000
   0.88823479  0.05191897  0.00000000
Direct configuration=    56
   0.03530733  0.06974431  0.00000000
   0.04042645  0.23248801  0.00000000
   0.88172902  0.04845223  0.00000000
Direct configuration=    57
   0.03652227  0.07115245  0.00000000
   0.03247780  0.23903146  0.00000000
   0.87587536  0.04473791  0.00000000
Direct configuration=    58
   0.03749754  0.07284702  0.00000000
   0.02497387  0.24076793  0.00000000
   0.87341836  0.04125376  0.00000000
Direct configuration=    59
   0.03814225  0.07481408  0.00000000
   0.01823582  0.23769052  0.00000000
   0.87548592  0.03823559  0.00000000
Direct configuration=    60
   0.03844659  0.07698001  0.00000000
   0.01252558  0.23102245  0.00000000
   0.88197145  0.03563227  0.00000000
Direct configuration=    61
   0.03849325  0.07919692  0.00000000
   0.00783765  0.22359052  0.00000000
   0.89155966  0.03298718  0.00000000
Direct configuration=    62
   0.03848878  0.08125717  0.00000000
   0.00363378  0.21976908  0.00000000
   0.90147920  0.02923995  0.00000000
Direct configuration=    63
   0.03870937  0.08305946  0.00000000
   0.99913553  0.22273595  0.00000000
   0.90809610  0.02283812  0.00000000
Direct configuration=    64
   0.03925262  0.08476378  0.00000000
   0.99433070  0.23061786  0.00000000
   0.90987743  0.01308012  0.00000000
Direct configuration=    65
   0.03992803  0.08654983  0.00000000
   0.98980125  0.23893711  0.00000000
   0.90927163  0.00157409  0.00000000
Direct configuration=    66
   0.04050466  0.08846319  0.00000000
   0.98600374  0.24437144  0.00000000
   0.90951892  0.99091124  0.00000000
Direct configuration=    67
   0.04085488  0.09047490  0.00000000
   0.98310146  0.24539816  0.00000000
   0.91249928  0.98309240  0.00000000
Direct configuration=    68
   0.04094915  0.09252734  0.00000000
   0.98098494  0.24189813  0.00000000
   0.91878942  0.97916716  0.00000000
Direct configuration=    69
   0.04083604  0.09453746  0.00000000
   0.97920075  0.23500699  0.00000000
   0.92807378  0.97931180  0.00000000
Direct configuration=    70
   0.04065451  0.09639532  0.00000000
   0.97671347  0.22741241  0.00000000
   0.93916421  0.98259672  0.00000000
Direct configuration=    71
   0.04065127  0.09802502  0.00000000
   0.97187666  0.22290441  0.00000000
   0.94975825  0.98644151  0.00000000
Direct configuration=    72
   0.04108509  0.09956059  0.00000000
   0.96365062  0.22344282  0.00000000
   0.95676548  0.98674548  0.00000000
Direct configuration=    73
   0.04196594  0.10128271  0.00000000
   0.95317310  0.22673728  0.00000000
   0.95889100  0.98132747  0.00000000
Direct configuration=    74
   0.04301848  0.10323036  0.00000000
   0.94259348  0.22926522  0.00000000
   0.95837591  0.97307507  0.00000000
Direct configuration=    75
   0.04396573  0.10528844  0.00000000
   0.93363870  0.22880937  0.00000000
   0.95793271  0.96604919  0.00000000
Direct configuration=    76
   0.04464960  0.10735197  0.00000000
   0.92729103  0.22461176  0.00000000
   0.95910925  0.96270124  0.00000000
Direct configuration=    77
   0.04501277  0.10934803  0.00000000
   0.92383490  0.21695924  0.00000000
   0.96252692  0.96389997  0.00000000
Direct configuration=    78
   0.04508370  0.11122283  0.00000000
   0.92277663  0.20702877  0.00000000
   0.96822896  0.96931814  0.00000000
Direct configuration=    79
   0.04499443  0.11295188  0.00000000
   0.92252220  0.19690616  0.00000000
   0.97569445  0.97725836  0.00000000
Direct configuration=    80
   0.04498424  0.11459777  0.00000000
   0.92047917  0.18915821  0.00000000
   0.98368415  0.98415473  0.00000000
Direct configuration=    81
   0.04526595  0.11636817  0.00000000
   0.91485648  0.18525358  0.00000000
   0.99058022  0.98521819  0.00000000
Direct configuration=    82
   0.04578296  0.11841001  0.00000000
   0.90681752  0.18433087  0.00000000
   0.99613123  0.97893512  0.00000000
Direct configuration=    83
   0.04627329  0.12059427  0.00000000
   0.89917081  0.18445050  0.00000000
   0.00173677  0.96930804  0.00000000
Direct configuration=    84
   0.04653293  0.12272228  0.00000000
   0.89414069  0.18410539  0.00000000
   0.00842072  0.96105101  0.00000000
Direct configuration=    85
   0.04648505  0.12466437  0.00000000
   0.89277424  0.18254008  0.00000000
   0.01635784  0.95699996  0.00000000
Direct configuration=    86
   0.04614871  0.12635728  0.00000000
   0.89503660  0.17960502  0.00000000
   0.02527703  0.95830818  0.00000000
Direct configuration=    87
   0.04562296  0.12778305  0.00000000
   0.89978955  0.17564046  0.00000000
   0.03474042  0.96491580  0.00000000
Direct configuration=    88
   0.04509010  0.12898069  0.00000000
   0.90456216  0.17147088  0.00000000
   0.04430202  0.97537470  0.00000000
Direct configuration=    89
   0.04477521  0.13010463  0.00000000
   0.90600285  0.16812507  0.00000000
   0.05371248  0.98618499  0.00000000
Direct configuration=    90
   0.04477359  0.13146669  0.00000000
   0.90233925  0.16595171  0.00000000
   0.06321787  0.99201147  0.00000000
Direct configuration=    91
   0.04494272  0.13328835  0.00000000
   0.89540827  0.16411130  0.00000000
   0.07326548  0.99017482  0.00000000
Direct configuration=    92
   0.04511495  0.13539980  0.00000000
   0.88851572  0.16146006  0.00000000
   0.08322977  0.98451735  0.00000000
Direct configuration=    93
   0.04521846  0.13753424  0.00000000
   0.88411522  0.15733646  0.00000000
   0.09180383  0.97997767  0.00000000
Direct configuration=    94
   0.04524212  0.13952658  0.00000000
   0.88334730  0.15161176  0.00000000
   0.09802719  0.97933887  0.00000000
Direct configuration=    95
   0.04521009  0.14130184  0.00000000
   0.88621738  0.14449708  0.00000000
   0.10150557  0.98356521  0.00000000
Direct configuration=    96
   0.04518024  0.14285248  0.00000000
   0.89164767  0.13639725  0.00000000
   0.10239623  0.99236728  0.00000000
Direct configuration=    97
   0.04523326  0.14425809  0.00000000
   0.89744984  0.12774320  0.00000000
   0.10159176  0.00404276  0.00000000
Direct configuration=    98
   0.04540895  0.14573708  0.00000000
   0.90098140  0.11880774  0.00000000
   0.10109466  0.01482066  0.00000000
Direct configuration=    99
   0.04560729  0.14759835  0.00000000
   0.90099585  0.10977926  0.00000000
   0.10374927  0.01957649  0.00000000
Direct configuration=   100
   0.04568073  0.14988600  0.00000000
   0.89878979  0.10107092  0.00000000
   0.11064540  0.01716291  0.00000000
