   1   1   0   0
  0.4200000E+03  0.7000000E-09  0.7500000E-09  0.8000000E-09  0.5000000E-15
  1.000000000000000E-004
  CAR 
 O atom in a box                         
      6.49610813    -26.57111772  301     -7.33701468      1.00000000
    -26.571  0.0000E+00  0.0000E+00  0.0000E+00  0.0000E+00
    -26.461  0.0000E+00  0.0000E+00  0.0000E+00  0.0000E+00
    -26.351  0.0000E+00  0.0000E+00  0.0000E+00  0.0000E+00
    -26.240  0.0000E+00  0.0000E+00  0.0000E+00  0.0000E+00
    -26.130  0.0000E+00  0.0000E+00  0.0000E+00  0.0000E+00
    -26.020  0.0000E+00  0.0000E+00  0.0000E+00  0.0000E+00
    -25.910  0.0000E+00  0.0000E+00  0.0000E+00  0.0000E+00
    -25.800  0.0000E+00  0.0000E+00  0.0000E+00  0.0000E+00
    -25.689  0.0000E+00  0.0000E+00  0.0000E+00  0.0000E+00
    -25.579  0.0000E+00  0.0000E+00  0.0000E+00  0.0000E+00
    -25.469  0.0000E+00  0.0000E+00  0.0000E+00  0.0000E+00
    -25.359  0.0000E+00  0.0000E+00  0.0000E+00  0.0000E+00
    -25.248  0.0000E+00  0.0000E+00  0.0000E+00  0.0000E+00
    -25.138  0.0000E+00  0.0000E+00  0.0000E+00  0.0000E+00
    -25.028  0.9072E+01  0.0000E+00  0.1000E+01  0.0000E+00
    -24.918  0.0000E+00  0.0000E+00  0.1000E+01  0.0000E+00
    -24.808  0.0000E+00  0.0000E+00  0.1000E+01  0.0000E+00
    -24.697  0.0000E+00  0.0000E+00  0.1000E+01  0.0000E+00
    -24.587  0.0000E+00  0.0000E+00  0.1000E+01  0.0000E+00
    -24.477  0.0000E+00  0.0000E+00  0.1000E+01  0.0000E+00
    -24.367  0.0000E+00  0.0000E+00  0.1000E+01  0.0000E+00
    -24.256  0.0000E+00  0.0000E+00  0.1000E+01  0.0000E+00
    -24.146  0.0000E+00  0.0000E+00  0.1000E+01  0.0000E+00
    -24.036  0.0000E+00  0.0000E+00  0.1000E+01  0.0000E+00
    -23.926  0.0000E+00  0.0000E+00  0.1000E+01  0.0000E+00
    -23.816  0.0000E+00  0.0000E+00  0.1000E+01  0.0000E+00
    -23.705  0.0000E+00  0.0000E+00  0.1000E+01  0.0000E+00
    -23.595  0.0000E+00  0.0000E+00  0.1000E+01  0.0000E+00
    -23.485  0.0000E+00  0.0000E+00  0.1000E+01  0.0000E+00
    -23.375  0.0000E+00  0.0000E+00  0.1000E+01  0.0000E+00
    -23.264  0.0000E+00  0.0000E+00  0.1000E+01  0.0000E+00
    -23.154  0.0000E+00  0.0000E+00  0.1000E+01  0.0000E+00
    -23.044  0.0000E+00  0.0000E+00  0.1000E+01  0.0000E+00
    -22.934  0.0000E+00  0.0000E+00  0.1000E+01  0.0000E+00
    -22.823  0.0000E+00  0.0000E+00  0.1000E+01  0.0000E+00
    -22.713  0.0000E+00  0.0000E+00  0.1000E+01  0.0000E+00
    -22.603  0.0000E+00  0.0000E+00  0.1000E+01  0.0000E+00
    -22.493  0.0000E+00  0.0000E+00  0.1000E+01  0.0000E+00
    -22.383  0.0000E+00  0.0000E+00  0.1000E+01  0.0000E+00
    -22.272  0.0000E+00  0.0000E+00  0.1000E+01  0.0000E+00
    -22.162  0.0000E+00  0.0000E+00  0.1000E+01  0.0000E+00
    -22.052  0.0000E+00  0.0000E+00  0.1000E+01  0.0000E+00
    -21.942  0.0000E+00  0.0000E+00  0.1000E+01  0.0000E+00
    -21.831  0.0000E+00  0.0000E+00  0.1000E+01  0.0000E+00
    -21.721  0.0000E+00  0.0000E+00  0.1000E+01  0.0000E+00
    -21.611  0.0000E+00  0.0000E+00  0.1000E+01  0.0000E+00
    -21.501  0.0000E+00  0.0000E+00  0.1000E+01  0.0000E+00
    -21.391  0.0000E+00  0.8707E+01  0.1000E+01  0.9598E+00
    -21.280  0.0000E+00  0.0000E+00  0.1000E+01  0.1000E+01
    -21.170  0.0000E+00  0.0000E+00  0.1000E+01  0.1000E+01
    -21.060  0.0000E+00  0.0000E+00  0.1000E+01  0.1000E+01
    -20.950  0.0000E+00  0.0000E+00  0.1000E+01  0.1000E+01
    -20.839  0.0000E+00  0.0000E+00  0.1000E+01  0.1000E+01
    -20.729  0.0000E+00  0.0000E+00  0.1000E+01  0.1000E+01
    -20.619  0.0000E+00  0.0000E+00  0.1000E+01  0.1000E+01
    -20.509  0.0000E+00  0.0000E+00  0.1000E+01  0.1000E+01
    -20.399  0.0000E+00  0.0000E+00  0.1000E+01  0.1000E+01
    -20.288  0.0000E+00  0.0000E+00  0.1000E+01  0.1000E+01
    -20.178  0.0000E+00  0.0000E+00  0.1000E+01  0.1000E+01
    -20.068  0.0000E+00  0.0000E+00  0.1000E+01  0.1000E+01
    -19.958  0.0000E+00  0.0000E+00  0.1000E+01  0.1000E+01
    -19.847  0.0000E+00  0.0000E+00  0.1000E+01  0.1000E+01
    -19.737  0.0000E+00  0.0000E+00  0.1000E+01  0.1000E+01
    -19.627  0.0000E+00  0.0000E+00  0.1000E+01  0.1000E+01
    -19.517  0.0000E+00  0.0000E+00  0.1000E+01  0.1000E+01
    -19.407  0.0000E+00  0.0000E+00  0.1000E+01  0.1000E+01
    -19.296  0.0000E+00  0.0000E+00  0.1000E+01  0.1000E+01
    -19.186  0.0000E+00  0.0000E+00  0.1000E+01  0.1000E+01
    -19.076  0.0000E+00  0.0000E+00  0.1000E+01  0.1000E+01
    -18.966  0.0000E+00  0.0000E+00  0.1000E+01  0.1000E+01
    -18.855  0.0000E+00  0.0000E+00  0.1000E+01  0.1000E+01
    -18.745  0.0000E+00  0.0000E+00  0.1000E+01  0.1000E+01
    -18.635  0.0000E+00  0.0000E+00  0.1000E+01  0.1000E+01
    -18.525  0.0000E+00  0.0000E+00  0.1000E+01  0.1000E+01
    -18.415  0.0000E+00  0.0000E+00  0.1000E+01  0.1000E+01
    -18.304  0.0000E+00  0.0000E+00  0.1000E+01  0.1000E+01
    -18.194  0.0000E+00  0.0000E+00  0.1000E+01  0.1000E+01
    -18.084  0.0000E+00  0.0000E+00  0.1000E+01  0.1000E+01
    -17.974  0.0000E+00  0.0000E+00  0.1000E+01  0.1000E+01
    -17.863  0.0000E+00  0.0000E+00  0.1000E+01  0.1000E+01
    -17.753  0.0000E+00  0.0000E+00  0.1000E+01  0.1000E+01
    -17.643  0.0000E+00  0.0000E+00  0.1000E+01  0.1000E+01
    -17.533  0.0000E+00  0.0000E+00  0.1000E+01  0.1000E+01
    -17.423  0.0000E+00  0.0000E+00  0.1000E+01  0.1000E+01
    -17.312  0.0000E+00  0.0000E+00  0.1000E+01  0.1000E+01
    -17.202  0.0000E+00  0.0000E+00  0.1000E+01  0.1000E+01
    -17.092  0.0000E+00  0.0000E+00  0.1000E+01  0.1000E+01
    -16.982  0.0000E+00  0.0000E+00  0.1000E+01  0.1000E+01
    -16.871  0.0000E+00  0.0000E+00  0.1000E+01  0.1000E+01
    -16.761  0.0000E+00  0.0000E+00  0.1000E+01  0.1000E+01
    -16.651  0.0000E+00  0.0000E+00  0.1000E+01  0.1000E+01
    -16.541  0.0000E+00  0.0000E+00  0.1000E+01  0.1000E+01
    -16.431  0.0000E+00  0.0000E+00  0.1000E+01  0.1000E+01
    -16.320  0.0000E+00  0.0000E+00  0.1000E+01  0.1000E+01
    -16.210  0.0000E+00  0.0000E+00  0.1000E+01  0.1000E+01
    -16.100  0.0000E+00  0.0000E+00  0.1000E+01  0.1000E+01
    -15.990  0.0000E+00  0.0000E+00  0.1000E+01  0.1000E+01
    -15.879  0.0000E+00  0.0000E+00  0.1000E+01  0.1000E+01
    -15.769  0.0000E+00  0.0000E+00  0.1000E+01  0.1000E+01
    -15.659  0.0000E+00  0.0000E+00  0.1000E+01  0.1000E+01
    -15.549  0.0000E+00  0.0000E+00  0.1000E+01  0.1000E+01
    -15.438  0.0000E+00  0.0000E+00  0.1000E+01  0.1000E+01
    -15.328  0.0000E+00  0.0000E+00  0.1000E+01  0.1000E+01
    -15.218  0.0000E+00  0.0000E+00  0.1000E+01  0.1000E+01
    -15.108  0.0000E+00  0.0000E+00  0.1000E+01  0.1000E+01
    -14.998  0.0000E+00  0.0000E+00  0.1000E+01  0.1000E+01
    -14.887  0.0000E+00  0.0000E+00  0.1000E+01  0.1000E+01
    -14.777  0.0000E+00  0.0000E+00  0.1000E+01  0.1000E+01
    -14.667  0.0000E+00  0.0000E+00  0.1000E+01  0.1000E+01
    -14.557  0.0000E+00  0.0000E+00  0.1000E+01  0.1000E+01
    -14.446  0.0000E+00  0.0000E+00  0.1000E+01  0.1000E+01
    -14.336  0.0000E+00  0.0000E+00  0.1000E+01  0.1000E+01
    -14.226  0.0000E+00  0.0000E+00  0.1000E+01  0.1000E+01
    -14.116  0.0000E+00  0.0000E+00  0.1000E+01  0.1000E+01
    -14.006  0.0000E+00  0.0000E+00  0.1000E+01  0.1000E+01
    -13.895  0.0000E+00  0.0000E+00  0.1000E+01  0.1000E+01
    -13.785  0.0000E+00  0.0000E+00  0.1000E+01  0.1000E+01
    -13.675  0.0000E+00  0.0000E+00  0.1000E+01  0.1000E+01
    -13.565  0.0000E+00  0.0000E+00  0.1000E+01  0.1000E+01
    -13.454  0.0000E+00  0.0000E+00  0.1000E+01  0.1000E+01
    -13.344  0.0000E+00  0.0000E+00  0.1000E+01  0.1000E+01
    -13.234  0.0000E+00  0.0000E+00  0.1000E+01  0.1000E+01
    -13.124  0.0000E+00  0.0000E+00  0.1000E+01  0.1000E+01
    -13.014  0.0000E+00  0.0000E+00  0.1000E+01  0.1000E+01
    -12.903  0.0000E+00  0.0000E+00  0.1000E+01  0.1000E+01
    -12.793  0.0000E+00  0.0000E+00  0.1000E+01  0.1000E+01
    -12.683  0.0000E+00  0.0000E+00  0.1000E+01  0.1000E+01
    -12.573  0.0000E+00  0.0000E+00  0.1000E+01  0.1000E+01
    -12.462  0.0000E+00  0.0000E+00  0.1000E+01  0.1000E+01
    -12.352  0.0000E+00  0.0000E+00  0.1000E+01  0.1000E+01
    -12.242  0.0000E+00  0.0000E+00  0.1000E+01  0.1000E+01
    -12.132  0.0000E+00  0.0000E+00  0.1000E+01  0.1000E+01
    -12.022  0.0000E+00  0.0000E+00  0.1000E+01  0.1000E+01
    -11.911  0.0000E+00  0.0000E+00  0.1000E+01  0.1000E+01
    -11.801  0.0000E+00  0.0000E+00  0.1000E+01  0.1000E+01
    -11.691  0.0000E+00  0.0000E+00  0.1000E+01  0.1000E+01
    -11.581  0.0000E+00  0.0000E+00  0.1000E+01  0.1000E+01
    -11.470  0.0000E+00  0.0000E+00  0.1000E+01  0.1000E+01
    -11.360  0.0000E+00  0.0000E+00  0.1000E+01  0.1000E+01
    -11.250  0.0000E+00  0.0000E+00  0.1000E+01  0.1000E+01
    -11.140  0.0000E+00  0.0000E+00  0.1000E+01  0.1000E+01
    -11.030  0.0000E+00  0.0000E+00  0.1000E+01  0.1000E+01
    -10.919  0.0000E+00  0.0000E+00  0.1000E+01  0.1000E+01
    -10.809  0.0000E+00  0.0000E+00  0.1000E+01  0.1000E+01
    -10.699  0.1814E+02  0.0000E+00  0.3000E+01  0.1000E+01
    -10.589  0.0000E+00  0.0000E+00  0.3000E+01  0.1000E+01
    -10.478  0.0000E+00  0.0000E+00  0.3000E+01  0.1000E+01
    -10.368  0.0000E+00  0.0000E+00  0.3000E+01  0.1000E+01
    -10.258  0.0000E+00  0.0000E+00  0.3000E+01  0.1000E+01
    -10.148  0.0000E+00  0.0000E+00  0.3000E+01  0.1000E+01
    -10.038  0.0000E+00  0.0000E+00  0.3000E+01  0.1000E+01
     -9.927  0.0000E+00  0.0000E+00  0.3000E+01  0.1000E+01
     -9.817  0.0000E+00  0.0000E+00  0.3000E+01  0.1000E+01
     -9.707  0.0000E+00  0.0000E+00  0.3000E+01  0.1000E+01
     -9.597  0.0000E+00  0.0000E+00  0.3000E+01  0.1000E+01
     -9.486  0.0000E+00  0.0000E+00  0.3000E+01  0.1000E+01
     -9.376  0.0000E+00  0.0000E+00  0.3000E+01  0.1000E+01
     -9.266  0.0000E+00  0.0000E+00  0.3000E+01  0.1000E+01
     -9.156  0.0000E+00  0.0000E+00  0.3000E+01  0.1000E+01
     -9.045  0.0000E+00  0.0000E+00  0.3000E+01  0.1000E+01
     -8.935  0.0000E+00  0.0000E+00  0.3000E+01  0.1000E+01
     -8.825  0.0000E+00  0.0000E+00  0.3000E+01  0.1000E+01
     -8.715  0.0000E+00  0.0000E+00  0.3000E+01  0.1000E+01
     -8.605  0.9072E+01  0.0000E+00  0.4000E+01  0.1000E+01
     -8.494  0.0000E+00  0.0000E+00  0.4000E+01  0.1000E+01
     -8.384  0.0000E+00  0.0000E+00  0.4000E+01  0.1000E+01
     -8.274  0.0000E+00  0.0000E+00  0.4000E+01  0.1000E+01
     -8.164  0.0000E+00  0.0000E+00  0.4000E+01  0.1000E+01
     -8.053  0.0000E+00  0.0000E+00  0.4000E+01  0.1000E+01
     -7.943  0.0000E+00  0.0000E+00  0.4000E+01  0.1000E+01
     -7.833  0.0000E+00  0.0000E+00  0.4000E+01  0.1000E+01
     -7.723  0.0000E+00  0.0000E+00  0.4000E+01  0.1000E+01
     -7.613  0.0000E+00  0.0000E+00  0.4000E+01  0.1000E+01
     -7.502  0.0000E+00  0.0000E+00  0.4000E+01  0.1000E+01
     -7.392  0.0000E+00  0.2986E+01  0.4000E+01  0.1329E+01
     -7.282  0.0000E+00  0.0000E+00  0.4000E+01  0.2000E+01
     -7.172  0.0000E+00  0.0000E+00  0.4000E+01  0.2000E+01
     -7.061  0.0000E+00  0.0000E+00  0.4000E+01  0.2000E+01
     -6.951  0.0000E+00  0.0000E+00  0.4000E+01  0.2000E+01
     -6.841  0.0000E+00  0.0000E+00  0.4000E+01  0.2000E+01
     -6.731  0.0000E+00  0.0000E+00  0.4000E+01  0.2000E+01
     -6.621  0.0000E+00  0.0000E+00  0.4000E+01  0.2000E+01
     -6.510  0.0000E+00  0.0000E+00  0.4000E+01  0.2000E+01
     -6.400  0.0000E+00  0.0000E+00  0.4000E+01  0.2000E+01
     -6.290  0.0000E+00  0.2060E+01  0.4000E+01  0.2227E+01
     -6.180  0.0000E+00  0.0000E+00  0.4000E+01  0.4000E+01
     -6.069  0.0000E+00  0.0000E+00  0.4000E+01  0.4000E+01
     -5.959  0.0000E+00  0.0000E+00  0.4000E+01  0.4000E+01
     -5.849  0.0000E+00  0.0000E+00  0.4000E+01  0.4000E+01
     -5.739  0.0000E+00  0.0000E+00  0.4000E+01  0.4000E+01
     -5.629  0.0000E+00  0.0000E+00  0.4000E+01  0.4000E+01
     -5.518  0.0000E+00  0.0000E+00  0.4000E+01  0.4000E+01
     -5.408  0.0000E+00  0.0000E+00  0.4000E+01  0.4000E+01
     -5.298  0.0000E+00  0.0000E+00  0.4000E+01  0.4000E+01
     -5.188  0.0000E+00  0.0000E+00  0.4000E+01  0.4000E+01
     -5.077  0.0000E+00  0.0000E+00  0.4000E+01  0.4000E+01
     -4.967  0.0000E+00  0.0000E+00  0.4000E+01  0.4000E+01
     -4.857  0.0000E+00  0.0000E+00  0.4000E+01  0.4000E+01
     -4.747  0.0000E+00  0.0000E+00  0.4000E+01  0.4000E+01
     -4.637  0.0000E+00  0.0000E+00  0.4000E+01  0.4000E+01
     -4.526  0.0000E+00  0.0000E+00  0.4000E+01  0.4000E+01
     -4.416  0.0000E+00  0.0000E+00  0.4000E+01  0.4000E+01
     -4.306  0.0000E+00  0.0000E+00  0.4000E+01  0.4000E+01
     -4.196  0.0000E+00  0.0000E+00  0.4000E+01  0.4000E+01
     -4.085  0.0000E+00  0.0000E+00  0.4000E+01  0.4000E+01
     -3.975  0.0000E+00  0.0000E+00  0.4000E+01  0.4000E+01
     -3.865  0.0000E+00  0.0000E+00  0.4000E+01  0.4000E+01
     -3.755  0.0000E+00  0.0000E+00  0.4000E+01  0.4000E+01
     -3.645  0.0000E+00  0.0000E+00  0.4000E+01  0.4000E+01
     -3.534  0.0000E+00  0.0000E+00  0.4000E+01  0.4000E+01
     -3.424  0.0000E+00  0.0000E+00  0.4000E+01  0.4000E+01
     -3.314  0.0000E+00  0.0000E+00  0.4000E+01  0.4000E+01
     -3.204  0.0000E+00  0.0000E+00  0.4000E+01  0.4000E+01
     -3.093  0.0000E+00  0.0000E+00  0.4000E+01  0.4000E+01
     -2.983  0.0000E+00  0.0000E+00  0.4000E+01  0.4000E+01
     -2.873  0.0000E+00  0.0000E+00  0.4000E+01  0.4000E+01
     -2.763  0.0000E+00  0.0000E+00  0.4000E+01  0.4000E+01
     -2.652  0.0000E+00  0.0000E+00  0.4000E+01  0.4000E+01
     -2.542  0.0000E+00  0.0000E+00  0.4000E+01  0.4000E+01
     -2.432  0.0000E+00  0.0000E+00  0.4000E+01  0.4000E+01
     -2.322  0.0000E+00  0.0000E+00  0.4000E+01  0.4000E+01
     -2.212  0.0000E+00  0.0000E+00  0.4000E+01  0.4000E+01
     -2.101  0.0000E+00  0.0000E+00  0.4000E+01  0.4000E+01
     -1.991  0.0000E+00  0.0000E+00  0.4000E+01  0.4000E+01
     -1.881  0.0000E+00  0.0000E+00  0.4000E+01  0.4000E+01
     -1.771  0.0000E+00  0.0000E+00  0.4000E+01  0.4000E+01
     -1.660  0.0000E+00  0.0000E+00  0.4000E+01  0.4000E+01
     -1.550  0.0000E+00  0.0000E+00  0.4000E+01  0.4000E+01
     -1.440  0.0000E+00  0.0000E+00  0.4000E+01  0.4000E+01
     -1.330  0.0000E+00  0.0000E+00  0.4000E+01  0.4000E+01
     -1.220  0.0000E+00  0.0000E+00  0.4000E+01  0.4000E+01
     -1.109  0.0000E+00  0.0000E+00  0.4000E+01  0.4000E+01
     -0.999  0.0000E+00  0.0000E+00  0.4000E+01  0.4000E+01
     -0.889  0.0000E+00  0.0000E+00  0.4000E+01  0.4000E+01
     -0.779  0.0000E+00  0.0000E+00  0.4000E+01  0.4000E+01
     -0.668  0.0000E+00  0.0000E+00  0.4000E+01  0.4000E+01
     -0.558  0.9042E+01  0.0000E+00  0.4997E+01  0.4000E+01
     -0.448  0.0000E+00  0.0000E+00  0.5000E+01  0.4000E+01
     -0.338  0.0000E+00  0.3857E+01  0.5000E+01  0.4425E+01
     -0.228  0.0000E+00  0.0000E+00  0.5000E+01  0.5000E+01
     -0.117  0.0000E+00  0.0000E+00  0.5000E+01  0.5000E+01
     -0.007  0.0000E+00  0.0000E+00  0.5000E+01  0.5000E+01
      0.103  0.0000E+00  0.0000E+00  0.5000E+01  0.5000E+01
      0.213  0.0000E+00  0.0000E+00  0.5000E+01  0.5000E+01
      0.324  0.0000E+00  0.0000E+00  0.5000E+01  0.5000E+01
      0.434  0.0000E+00  0.0000E+00  0.5000E+01  0.5000E+01
      0.544  0.0000E+00  0.0000E+00  0.5000E+01  0.5000E+01
      0.654  0.0000E+00  0.0000E+00  0.5000E+01  0.5000E+01
      0.764  0.0000E+00  0.0000E+00  0.5000E+01  0.5000E+01
      0.875  0.0000E+00  0.0000E+00  0.5000E+01  0.5000E+01
      0.985  0.0000E+00  0.0000E+00  0.5000E+01  0.5000E+01
      1.095  0.0000E+00  0.0000E+00  0.5000E+01  0.5000E+01
      1.205  0.0000E+00  0.0000E+00  0.5000E+01  0.5000E+01
      1.316  0.0000E+00  0.0000E+00  0.5000E+01  0.5000E+01
      1.426  0.0000E+00  0.0000E+00  0.5000E+01  0.5000E+01
      1.536  0.0000E+00  0.0000E+00  0.5000E+01  0.5000E+01
      1.646  0.0000E+00  0.0000E+00  0.5000E+01  0.5000E+01
      1.756  0.1511E-10  0.0000E+00  0.5000E+01  0.5000E+01
      1.867  0.9072E+01  0.4264E-10  0.6000E+01  0.5000E+01
      1.977  0.3161E-01  0.9072E+01  0.6003E+01  0.6000E+01
      2.087  0.9072E+01  0.0000E+00  0.8000E+01  0.6000E+01
      2.197  0.2405E-07  0.9072E+01  0.8000E+01  0.7000E+01
      2.308  0.9072E+01  0.0000E+00  0.9000E+01  0.7000E+01
      2.418  0.9072E+01  0.9073E+01  0.1000E+02  0.8000E+01
      2.528  0.0000E+00  0.0000E+00  0.1000E+02  0.9000E+01
      2.638  0.9018E+01  0.0000E+00  0.1099E+02  0.9000E+01
      2.748  0.0000E+00  0.5667E-01  0.1100E+02  0.9006E+01
      2.859  0.0000E+00  0.9072E+01  0.1100E+02  0.1100E+02
      2.969  0.0000E+00  0.0000E+00  0.1100E+02  0.1100E+02
      3.079  0.0000E+00  0.0000E+00  0.1100E+02  0.1100E+02
      3.189  0.0000E+00  0.0000E+00  0.1100E+02  0.1100E+02
      3.300  0.0000E+00  0.0000E+00  0.1100E+02  0.1100E+02
      3.410  0.0000E+00  0.0000E+00  0.1100E+02  0.1100E+02
      3.520  0.0000E+00  0.0000E+00  0.1100E+02  0.1100E+02
      3.630  0.0000E+00  0.0000E+00  0.1100E+02  0.1100E+02
      3.741  0.0000E+00  0.0000E+00  0.1100E+02  0.1100E+02
      3.851  0.0000E+00  0.0000E+00  0.1100E+02  0.1100E+02
      3.961  0.0000E+00  0.0000E+00  0.1100E+02  0.1100E+02
      4.071  0.0000E+00  0.0000E+00  0.1100E+02  0.1100E+02
      4.181  0.0000E+00  0.0000E+00  0.1100E+02  0.1100E+02
      4.292  0.0000E+00  0.7731E-08  0.1100E+02  0.1100E+02
      4.402  0.0000E+00  0.9072E+01  0.1100E+02  0.1200E+02
      4.512  0.9252E-03  0.0000E+00  0.1100E+02  0.1200E+02
      4.622  0.9072E+01  0.1317E+00  0.1300E+02  0.1201E+02
      4.733  0.4285E-02  0.9072E+01  0.1300E+02  0.1400E+02
      4.843  0.0000E+00  0.8813E-13  0.1400E+02  0.1400E+02
      4.953  0.9072E+01  0.1814E+02  0.1500E+02  0.1600E+02
      5.063  0.9072E+01  0.0000E+00  0.1600E+02  0.1600E+02
      5.173  0.0000E+00  0.0000E+00  0.1600E+02  0.1600E+02
      5.284  0.0000E+00  0.0000E+00  0.1600E+02  0.1600E+02
      5.394  0.0000E+00  0.0000E+00  0.1600E+02  0.1600E+02
      5.504  0.0000E+00  0.0000E+00  0.1600E+02  0.1600E+02
      5.614  0.0000E+00  0.0000E+00  0.1600E+02  0.1600E+02
      5.725  0.0000E+00  0.0000E+00  0.1600E+02  0.1600E+02
      5.835  0.0000E+00  0.0000E+00  0.1600E+02  0.1600E+02
      5.945  0.0000E+00  0.0000E+00  0.1600E+02  0.1600E+02
      6.055  0.0000E+00  0.0000E+00  0.1600E+02  0.1600E+02
      6.165  0.0000E+00  0.0000E+00  0.1600E+02  0.1600E+02
      6.276  0.0000E+00  0.0000E+00  0.1600E+02  0.1600E+02
      6.386  0.0000E+00  0.0000E+00  0.1600E+02  0.1600E+02
      6.496  0.0000E+00  0.0000E+00  0.1600E+02  0.1600E+02
