    1    1    1    2
  0.4200000E+03  0.7000000E-09  0.7500000E-09  0.8000000E-09  0.5000000E-15
  1.000000000000000E-004
  CAR 
 O atom in a box                         
      6      1     16
 
  0.0000000E+00  0.0000000E+00  0.0000000E+00  0.1000000E+01
    1      -25.068062    -21.402946   1.000000   1.000000
    2      -10.743932     -7.388998   1.000000   1.000000
    3      -10.743165     -6.282041   1.000000   0.000000
    4       -8.643523     -6.280554   1.000000   0.000000
    5       -0.577418     -0.336450   0.000000   0.000000
    6        1.805708      1.914889   0.000000   0.000000
    7        1.996001      2.169030   0.000000   0.000000
    8        2.015696      2.388847   0.000000   0.000000
    9        2.238646      2.444452   0.000000   0.000000
   10        2.386480      2.766152   0.000000   0.000000
   11        2.620507      2.818677   0.000000   0.000000
   12        4.538337      4.334221   0.000000   0.000000
   13        4.584712      4.637736   0.000000   0.000000
   14        4.755903      4.669821   0.000000   0.000000
   15        4.923326      4.896870   0.000000   0.000000
   16        4.993052      4.923758   0.000000   0.000000
