       N       E                     dE             d eps       ncg     rms          rms(c)
DAV:   1     0.333762755907E+02    0.33376E+02   -0.85931E+02    64   0.131E+02
DAV:   2    -0.721417304206E+00   -0.34098E+02   -0.34098E+02   128   0.249E+01
DAV:   3    -0.111217290351E+01   -0.39076E+00   -0.38353E+00    64   0.612E+00
DAV:   4    -0.111361830496E+01   -0.14454E-02   -0.14440E-02   112   0.384E-01
DAV:   5    -0.111361849859E+01   -0.19363E-06   -0.19343E-06    80   0.364E-03    0.654E+00
DAV:   6     0.226373158329E+00    0.13400E+01   -0.31426E+00    64   0.440E+00    0.632E+00
DAV:   7    -0.106674966839E+01   -0.12931E+01   -0.59112E-01   128   0.272E+00    0.396E+00
DAV:   8    -0.162827735192E+01   -0.56153E+00   -0.23818E-01    96   0.120E+00    0.262E+00
DAV:   9    -0.179101417167E+01   -0.16274E+00   -0.28388E-01    64   0.193E+00    0.328E-01
DAV:  10    -0.186645634420E+01   -0.75442E-01   -0.10211E-02    96   0.289E-01    0.219E-01
DAV:  11    -0.188664581312E+01   -0.20189E-01   -0.36853E-03   112   0.183E-01    0.524E-02
DAV:  12    -0.188470994098E+01    0.19359E-02   -0.17733E-03    96   0.115E-01    0.964E-02
DAV:  13    -0.188952618716E+01   -0.48162E-02   -0.81641E-04    64   0.986E-02    0.160E-02
DAV:  14    -0.189044556070E+01   -0.91937E-03   -0.12028E-04   112   0.295E-02    0.139E-02
DAV:  15    -0.189069851542E+01   -0.25295E-03   -0.41955E-05    80   0.222E-02    0.101E-02
DAV:  16    -0.189099267253E+01   -0.29416E-03   -0.36101E-05    96   0.136E-02    0.489E-03
DAV:  17    -0.189104433168E+01   -0.51659E-04   -0.34239E-06    96   0.622E-03
   1 F= -.18910443E+01 E0= -.18910443E+01  d E =-.518115E-14  mag=     1.9997
