 vasp.5.4.1 24Jun15 (build Apr 04 2016 10:44:54) complex                        
  
 executed on                Titan date 2018.12.04  13:31:30
 running on   16 total cores
 distrk:  each k-point on   16 cores,    1 groups
 distr:  one band on NCORES_PER_BAND=   1 cores,   16 groups


--------------------------------------------------------------------------------------------------------


 INCAR:
 POTCAR:   PAW_RPBE O 08Apr2002                   

 ----------------------------------------------------------------------------- 
|                                                                             |
|           W    W    AA    RRRRR   N    N  II  N    N   GGGG   !!!           |
|           W    W   A  A   R    R  NN   N  II  NN   N  G    G  !!!           |
|           W    W  A    A  R    R  N N  N  II  N N  N  G       !!!           |
|           W WW W  AAAAAA  RRRRR   N  N N  II  N  N N  G  GGG   !            |
|           WW  WW  A    A  R   R   N   NN  II  N   NN  G    G                |
|           W    W  A    A  R    R  N    N  II  N    N   GGGG   !!!           |
|                                                                             |
|      For optimal performance we recommend to set                            |
|        NCORE= 4 - approx SQRT( number of cores)                             |
|      NCORE specifies how many cores store one orbital (NPAR=cpu/NCORE).     |
|      This setting can  greatly improve the performance of VASP for DFT.     |
|      The default, NPAR=number of cores might be grossly inefficient         |
|      on modern multi-core architectures or massively parallel machines.     |
|      Do your own testing !!!!                                               |
|      Unfortunately you need to use the default for GW and RPA calculations. |
|      (for HF NCORE is supported but not extensively tested yet)             |
|                                                                             |
 ----------------------------------------------------------------------------- 

 POTCAR:   PAW_RPBE O 08Apr2002                   
   VRHFIN =O: s2p4                                                              
   LEXCH  = PE                                                                  
   EATOM  =   432.3788 eV,   31.7789 Ry                                         
                                                                                
   TITEL  = PAW_RPBE O 08Apr2002                                                
   LULTRA =        F    use ultrasoft PP ?                                      
   IUNSCR =        0    unscreen: 0-lin 1-nonlin 2-no                           
   RPACOR =     .000    partial core radius                                     
   POMASS =   16.000; ZVAL   =    6.000    mass and valenz                      
   RCORE  =    1.520    outmost cutoff radius                                   
   RWIGS  =    1.550; RWIGS  =     .820    wigner-seitz radius (au A)           
   ENMAX  =  400.000; ENMIN  =  300.000 eV                                      
   ICORE  =        2    local potential                                         
   LCOR   =        T    correct aug charges                                     
   LPAW   =        T    paw PP                                                  
   EAUG   =  605.392                                                            
   DEXC   =     .000                                                            
   RMAX   =    2.264    core radius for proj-oper                               
   RAUG   =    1.300    factor for augmentation sphere                          
   RDEP   =    1.550    radius for radial grids                                 
   QCUT   =   -5.520; QGAM   =   11.041    optimization parameters              
                                                                                
   Description                                                                  
     l     E      TYP  RCUT    TYP  RCUT                                        
     0   .000     23  1.200                                                     
     0  -.700     23  1.200                                                     
     1   .000     23  1.520                                                     
     1   .600     23  1.520                                                     
     2   .000      7  1.500                                                     
  local pseudopotential read in
  atomic valenz-charges read in
  non local Contribution for L=           0  read in
    real space projection operators read in
  non local Contribution for L=           0  read in
    real space projection operators read in
  non local Contribution for L=           1  read in
    real space projection operators read in
  non local Contribution for L=           1  read in
    real space projection operators read in
    PAW grid and wavefunctions read in
 
   number of l-projection  operators is LMAX  =           4
   number of lm-projection operators is LMMAX =           8
 
 PAW_RPBE O 08Apr2002                   :
 energy of atom  1       EATOM= -432.3788
 kinetic energy error for atom=    0.1156 (will be added to EATOM!!)
 
 
 POSCAR: O atom in a box                         
  positions in cartesian coordinates
  No initial velocities read in
 exchange correlation table for  LEXCH =        8
   RHO(1)=    0.500       N(1)  =     2000
   RHO(2)=  100.500       N(2)  =     4000
 


--------------------------------------------------------------------------------------------------------


 ion  position               nearest neighbor table
   1  0.000  0.000  0.000-
 
  LATTYP: Found a simple orthorhombic cell.
 ALAT       =     7.0000000000
 B/A-ratio  =     1.0714285714
 C/A-ratio  =     1.1428571429
  
  Lattice vectors:
  
 A1 = (   7.0000000000,   0.0000000000,   0.0000000000)
 A2 = (   0.0000000000,   7.5000000000,   0.0000000000)
 A3 = (   0.0000000000,   0.0000000000,   8.0000000000)


Analysis of symmetry for initial positions (statically):
=====================================================================
 Subroutine PRICEL returns:
 Original cell was already a primitive cell.
 

 Routine SETGRP: Setting up the symmetry group for a 
 simple orthorhombic supercell.


 Subroutine GETGRP returns: Found  8 space group operations
 (whereof  8 operations were pure point group operations)
 out of a pool of  8 trial point group operations.


The static configuration has the point symmetry D_2h.


Analysis of symmetry for dynamics (positions and initial velocities):
=====================================================================
 Subroutine PRICEL returns:
 Original cell was already a primitive cell.
 

 Routine SETGRP: Setting up the symmetry group for a 
 simple orthorhombic supercell.


 Subroutine GETGRP returns: Found  8 space group operations
 (whereof  8 operations were pure point group operations)
 out of a pool of  8 trial point group operations.


The dynamic configuration has the point symmetry D_2h.


Analysis of magnetic symmetry:
=====================================================================
 Subroutine PRICEL returns:
 Original cell was already a primitive cell.
 

 Subroutine MAGSYM returns: Found  8 space group operations
 (whereof  8 operations were pure point group operations)
 out of a pool of  8 trial space group operations
 (whereof  8 operations were pure point group operations)
 and found also     1 'primitive' translations


The magnetic configuration has the point symmetry D_2h.
 
 
 KPOINTS: Gamma-point only                        
  k-points in reciprocal lattice
Space group operators:
 irot       det(A)        alpha          n_x          n_y          n_z        tau_x        tau_y        tau_z
    1     1.000000     0.000000     1.000000     0.000000     0.000000     0.000000     0.000000     0.000000
    2    -1.000000     0.000000     1.000000     0.000000     0.000000     0.000000     0.000000     0.000000
    3     1.000000   180.000000     0.000000     0.000000     1.000000     0.000000     0.000000     0.000000
    4    -1.000000   180.000000     0.000000     0.000000     1.000000     0.000000     0.000000     0.000000
    5     1.000000   180.000000     0.000000     1.000000     0.000000     0.000000     0.000000     0.000000
    6    -1.000000   180.000000     0.000000     1.000000     0.000000     0.000000     0.000000     0.000000
    7     1.000000   180.000000     1.000000     0.000000     0.000000     0.000000     0.000000     0.000000
    8    -1.000000   180.000000     1.000000     0.000000     0.000000     0.000000     0.000000     0.000000


--------------------------------------------------------------------------------------------------------




 Dimension of arrays:
   k-points           NKPTS =      1   k-points in BZ     NKDIM =      1   number of bands    NBANDS=     16
   number of dos      NEDOS =    301   number of ions     NIONS =      1
   non local maximal  LDIM  =      4   non local SUM 2l+1 LMDIM =      8
   total plane-waves  NPLWV =  57600
   max r-space proj   IRMAX =      1   max aug-charges    IRDMAX=   1979
   dimension x,y,z NGX =    36 NGY =   40 NGZ =   40
   dimension x,y,z NGXF=    72 NGYF=   80 NGZF=   80
   support grid    NGXF=    72 NGYF=   80 NGZF=   80
   ions per type =               1
 NGX,Y,Z   is equivalent  to a cutoff of   8.55,  8.87,  8.31 a.u.
 NGXF,Y,Z  is equivalent  to a cutoff of  17.10, 17.73, 16.62 a.u.


 I would recommend the setting:
   dimension x,y,z NGX =    34 NGY =   37 NGZ =   39
 SYSTEM =  O atom in a box                         
 POSCAR =  O atom in a box                         

 Startparameter for this run:
   NWRITE =      2    write-flag & timer
   PREC   = normal    normal or accurate (medium, high low for compatibility)
   ISTART =      0    job   : 0-new  1-cont  2-samecut
   ICHARG =      2    charge: 1-file 2-atom 10-const
   ISPIN  =      2    spin polarized calculation?
   LNONCOLLINEAR =      F non collinear calculations
   LSORBIT =      F    spin-orbit coupling
   INIWAV =      1    electr: 0-lowe 1-rand  2-diag
   LASPH  =      F    aspherical Exc in radial PAW
   METAGGA=      F    non-selfconsistent MetaGGA calc.

 Electronic Relaxation 1
   ENCUT  =  400.0 eV  29.40 Ry    5.42 a.u.  11.42 12.23 13.05*2*pi/ulx,y,z
   ENINI  =  400.0     initial cutoff
   ENAUG  =  605.4 eV  augmentation charge cutoff
   NELM   =     60;   NELMIN=  2; NELMDL= -5     # of ELM steps 
   EDIFF  = 0.1E-03   stopping-criterion for ELM
   LREAL  =      F    real-space projection
   NLSPLINE    = F    spline interpolate recip. space projectors
   LCOMPAT=      F    compatible to vasp.4.4
   GGA_COMPAT  = T    GGA compatible to vasp.4.4-vasp.4.6
   LMAXPAW     = -100 max onsite density
   LMAXMIX     =    2 max onsite mixed and CHGCAR
   VOSKOWN=      0    Vosko Wilk Nusair interpolation
   ROPT   =    0.00000
 Ionic relaxation
   EDIFFG = 0.1E-02   stopping-criterion for IOM
   NSW    =      0    number of steps for IOM
   NBLOCK =      1;   KBLOCK =      1    inner block; outer block 
   IBRION =     -1    ionic relax: 0-MD 1-quasi-New 2-CG
   NFREE  =      0    steps in history (QN), initial steepest desc. (CG)
   ISIF   =      2    stress and relaxation
   IWAVPR =     10    prediction:  0-non 1-charg 2-wave 3-comb
   ISYM   =      2    0-nonsym 1-usesym 2-fastsym
   LCORR  =      T    Harris-Foulkes like correction to forces

   POTIM  = 0.5000    time-step for ionic-motion
   TEIN   =    0.0    initial temperature
   TEBEG  =    0.0;   TEEND  =   0.0 temperature during run
   SMASS  =  -3.00    Nose mass-parameter (am)
   estimated Nose-frequenzy (Omega)   =  0.10E-29 period in steps =****** mass=  -0.112E-26a.u.
   SCALEE = 1.0000    scale energy and forces
   NPACO  =    256;   APACO  = 16.0  distance and # of slots for P.C.
   PSTRESS=    0.0 pullay stress

  Mass of Ions in am
   POMASS =  16.00
  Ionic Valenz
   ZVAL   =   6.00
  Atomic Wigner-Seitz radii
   RWIGS  =  -1.00
  virtual crystal weights 
   VCA    =   1.00
   NELECT =       6.0000    total number of electrons
   NUPDOWN=      -1.0000    fix difference up-down

 DOS related values:
   EMIN   =  10.00;   EMAX   =-10.00  energy-range for DOS
   EFERMI =   0.00
   ISMEAR =     0;   SIGMA  =   0.01  broadening in eV -4-tet -1-fermi 0-gaus

 Electronic relaxation 2 (details)
   IALGO  =     38    algorithm
   LDIAG  =      T    sub-space diagonalisation (order eigenvalues)
   LSUBROT=      F    optimize rotation matrix (better conditioning)
   TURBO    =      0    0=normal 1=particle mesh
   IRESTART =      0    0=no restart 2=restart with 2 vectors
   NREBOOT  =      0    no. of reboots
   NMIN     =      0    reboot dimension
   EREF     =   0.00    reference energy to select bands
   IMIX   =      4    mixing-type and parameters
     AMIX     =   0.40;   BMIX     =  1.00
     AMIX_MAG =   1.60;   BMIX_MAG =  1.00
     AMIN     =   0.10
     WC   =   100.;   INIMIX=   1;  MIXPRE=   1;  MAXMIX= -45

 Intra band minimization:
   WEIMIN = 0.0000     energy-eigenvalue tresh-hold
   EBREAK =  0.16E-05  absolut break condition
   DEPER  =   0.30     relativ break condition  

   TIME   =   0.40     timestep for ELM

  volume/ion in A,a.u.               =     420.00      2834.30
  Fermi-wavevector in a.u.,A,eV,Ry     =   0.397230  0.750656  2.146887  0.157792
  Thomas-Fermi vector in A             =   1.343925
 
 Write flags
   LWAVE  =      T    write WAVECAR
   LCHARG =      T    write CHGCAR
   LVTOT  =      F    write LOCPOT, total local potential
   LVHAR  =      F    write LOCPOT, Hartree potential only
   LELF   =      F    write electronic localiz. function (ELF)
   LORBIT =      0    0 simple, 1 ext, 2 COOP (PROOUT)


 Dipole corrections
   LMONO  =      F    monopole corrections only (constant potential shift)
   LDIPOL =      F    correct potential (dipole corrections)
   IDIPOL =      0    1-x, 2-y, 3-z, 4-all directions 
   EPSILON=  1.0000000 bulk dielectric constant

 Exchange correlation treatment:
   GGA     =    --    GGA type
   LEXCH   =     8    internal setting for exchange type
   VOSKOWN=      0    Vosko Wilk Nusair interpolation
   LHFCALC =     F    Hartree Fock is set to
   LHFONE  =     F    Hartree Fock one center treatment
   AEXX    =    0.0000 exact exchange contribution

 Linear response parameters
   LEPSILON=     F    determine dielectric tensor
   LRPA    =     F    only Hartree local field effects (RPA)
   LNABLA  =     F    use nabla operator in PAW spheres
   LVEL    =     F    velocity operator in full k-point grid
   LINTERFAST=   F  fast interpolation
   KINTER  =     0    interpolate to denser k-point grid
   CSHIFT  =0.1000    complex shift for real part using Kramers Kronig
   OMEGAMAX=  -1.0    maximum frequency
   DEG_THRESHOLD= 0.2000000E-02 threshold for treating states as degnerate
   RTIME   =    0.100 relaxation time in fs

 Orbital magnetization related:
   ORBITALMAG=     F  switch on orbital magnetization
   LCHIMAG   =     F  perturbation theory with respect to B field
   DQ        =  0.001000  dq finite difference perturbation B field



--------------------------------------------------------------------------------------------------------


 Static calculation
 charge density and potential will be updated during run
 spin polarized calculation
 Variant of blocked Davidson
 Davidson routine will perform the subspace rotation
 perform sub-space diagonalisation
    after iterative eigenvector-optimisation
 modified Broyden-mixing scheme, WC =      100.0
 initial mixing is a Kerker type mixing with AMIX =  0.4000 and BMIX =      1.0000
 Hartree-type preconditioning will be used
 using additional bands           13
 reciprocal scheme for non local part
 calculate Harris-corrections to forces 
   (improved forces if not selfconsistent)
 use gradient corrections 
 use of overlap-Matrix (Vanderbilt PP)
 Gauss-broadening in eV      SIGMA  =   0.01


--------------------------------------------------------------------------------------------------------


  energy-cutoff  :      400.00
  volume of cell :      420.00
      direct lattice vectors                 reciprocal lattice vectors
     7.000000000  0.000000000  0.000000000     0.142857143  0.000000000  0.000000000
     0.000000000  7.500000000  0.000000000     0.000000000  0.133333333  0.000000000
     0.000000000  0.000000000  8.000000000     0.000000000  0.000000000  0.125000000

  length of vectors
     7.000000000  7.500000000  8.000000000     0.142857143  0.133333333  0.125000000


 
 k-points in units of 2pi/SCALE and weight: Gamma-point only                        
   0.00000000  0.00000000  0.00000000       1.000
 
 k-points in reciprocal lattice and weights: Gamma-point only                        
   0.00000000  0.00000000  0.00000000       1.000
 
 position of ions in fractional coordinates (direct lattice) 
   0.00000000  0.00000000  0.00000000
 
 position of ions in cartesian coordinates  (Angst):
   0.00000000  0.00000000  0.00000000
 


--------------------------------------------------------------------------------------------------------


 k-point  1 :   0.0000 0.0000 0.0000  plane waves:    7625

 maximum and minimum number of plane-waves per node :      7625     7625

 maximum number of plane-waves:      7625
 maximum index in each direction: 
   IXMAX=   11   IYMAX=   12   IZMAX=   13
   IXMIN=  -11   IYMIN=  -12   IZMIN=  -13

 WARNING: aliasing errors must be expected set NGX to  46 to avoid them
 WARNING: aliasing errors must be expected set NGY to  50 to avoid them
 WARNING: aliasing errors must be expected set NGZ to  54 to avoid them
 aliasing errors are usually negligible using standard VASP settings
 and one can safely disregard these warnings

 serial   3D FFT for wavefunctions
 parallel 3D FFT for charge:
    minimum data exchange during FFTs selected (reduces bandwidth)


 total amount of memory used by VASP on root node    39184. kBytes
========================================================================

   base      :      30000. kBytes
   nonl-proj :        610. kBytes
   fftplans  :       1322. kBytes
   grid      :       7002. kBytes
   one-center:          6. kBytes
   wavefun   :        244. kBytes
 
     INWAV:  cpu time    0.0000: real time    0.0000
 Broyden mixing: mesh for mixing (old mesh)
   NGX = 23   NGY = 25   NGZ = 27
  (NGX  = 72   NGY  = 80   NGZ  = 80)
  gives a total of  15525 points

 initial charge density was supplied:
 charge density of overlapping atoms calculated
 number of electron       6.0000000 magnetization       1.0000000
 keeping initial charge density in first step


--------------------------------------------------------------------------------------------------------


 Maximum index for augmentation-charges          173 (set IRDMAX)


--------------------------------------------------------------------------------------------------------


 First call to EWALD:  gamma=   0.237
 Maximum number of real-space cells 3x 3x 3
 Maximum number of reciprocal cells 3x 3x 3

 FEWALD executed in parallel
    FEWALD:  cpu time    0.0000: real time    0.0022


----------------------------------------- Iteration    1(   1)  ---------------------------------------


    POTLOK:  cpu time    0.1160: real time    0.1152
    SETDIJ:  cpu time    0.0040: real time    0.0058
     EDDAV:  cpu time    0.0640: real time    0.0635
       DOS:  cpu time    0.0000: real time    0.0002
    --------------------------------------------
      LOOP:  cpu time    0.1880: real time    0.1895

 eigenvalue-minimisations  :    64
 total energy-change (2. order) : 0.3337628E+02  (-0.8593103E+02)
 number of electron       6.0000000 magnetization       1.0000000
 augmentation part        6.0000000 magnetization       1.0000000

 Free energy of the ion-electron system (eV)
  ---------------------------------------------------
  alpha Z        PSCENC =         0.33079207
  Ewald energy   TEWEN  =       -97.75476090
  -Hartree energ DENC   =      -276.26988979
  -exchange      EXHF   =         0.00000000
  -V(xc)+E(xc)   XCENC  =        26.26291933
  PAW double counting   =       245.86419871     -247.70903455
  entropy T*S    EENTRO =        -0.00000000
  eigenvalues    EBANDS =       -49.61114532
  atomic energy  EATOM  =       432.26319604
  Solvation  Ediel_sol  =         0.00000000
  ---------------------------------------------------
  free energy    TOTEN  =        33.37627559 eV

  energy without entropy =       33.37627559  energy(sigma->0) =       33.37627559


--------------------------------------------------------------------------------------------------------




----------------------------------------- Iteration    1(   2)  ---------------------------------------


     EDDAV:  cpu time    0.1280: real time    0.1266
       DOS:  cpu time    0.0000: real time    0.0001
    --------------------------------------------
      LOOP:  cpu time    0.1280: real time    0.1300

 eigenvalue-minimisations  :   128
 total energy-change (2. order) :-0.3409769E+02  (-0.3409769E+02)
 number of electron       6.0000000 magnetization       1.0000000
 augmentation part        6.0000000 magnetization       1.0000000

 Free energy of the ion-electron system (eV)
  ---------------------------------------------------
  alpha Z        PSCENC =         0.33079207
  Ewald energy   TEWEN  =       -97.75476090
  -Hartree energ DENC   =      -276.26988979
  -exchange      EXHF   =         0.00000000
  -V(xc)+E(xc)   XCENC  =        26.26291933
  PAW double counting   =       245.86419871     -247.70903455
  entropy T*S    EENTRO =        -0.00002385
  eigenvalues    EBANDS =       -83.70881436
  atomic energy  EATOM  =       432.26319604
  Solvation  Ediel_sol  =         0.00000000
  ---------------------------------------------------
  free energy    TOTEN  =        -0.72141730 eV

  energy without entropy =       -0.72139345  energy(sigma->0) =       -0.72140538


--------------------------------------------------------------------------------------------------------




----------------------------------------- Iteration    1(   3)  ---------------------------------------


     EDDAV:  cpu time    0.0640: real time    0.0623
       DOS:  cpu time    0.0000: real time    0.0001
    --------------------------------------------
      LOOP:  cpu time    0.0640: real time    0.0677

 eigenvalue-minimisations  :    64
 total energy-change (2. order) :-0.3907556E+00  (-0.3835349E+00)
 number of electron       6.0000000 magnetization       1.0000000
 augmentation part        6.0000000 magnetization       1.0000000

 Free energy of the ion-electron system (eV)
  ---------------------------------------------------
  alpha Z        PSCENC =         0.33079207
  Ewald energy   TEWEN  =       -97.75476090
  -Hartree energ DENC   =      -276.26988979
  -exchange      EXHF   =         0.00000000
  -V(xc)+E(xc)   XCENC  =        26.26291933
  PAW double counting   =       245.86419871     -247.70903455
  entropy T*S    EENTRO =        -0.00770130
  eigenvalues    EBANDS =       -84.09189252
  atomic energy  EATOM  =       432.26319604
  Solvation  Ediel_sol  =         0.00000000
  ---------------------------------------------------
  free energy    TOTEN  =        -1.11217290 eV

  energy without entropy =       -1.10447161  energy(sigma->0) =       -1.10832226


--------------------------------------------------------------------------------------------------------




----------------------------------------- Iteration    1(   4)  ---------------------------------------


     EDDAV:  cpu time    0.1080: real time    0.1084
       DOS:  cpu time    0.0000: real time    0.0002
    --------------------------------------------
      LOOP:  cpu time    0.1120: real time    0.1141

 eigenvalue-minimisations  :   112
 total energy-change (2. order) :-0.1445401E-02  (-0.1443983E-02)
 number of electron       6.0000000 magnetization       1.0000000
 augmentation part        6.0000000 magnetization       1.0000000

 Free energy of the ion-electron system (eV)
  ---------------------------------------------------
  alpha Z        PSCENC =         0.33079207
  Ewald energy   TEWEN  =       -97.75476090
  -Hartree energ DENC   =      -276.26988979
  -exchange      EXHF   =         0.00000000
  -V(xc)+E(xc)   XCENC  =        26.26291933
  PAW double counting   =       245.86419871     -247.70903455
  entropy T*S    EENTRO =        -0.00770803
  eigenvalues    EBANDS =       -84.09333118
  atomic energy  EATOM  =       432.26319604
  Solvation  Ediel_sol  =         0.00000000
  ---------------------------------------------------
  free energy    TOTEN  =        -1.11361830 eV

  energy without entropy =       -1.10591027  energy(sigma->0) =       -1.10976429


--------------------------------------------------------------------------------------------------------




----------------------------------------- Iteration    1(   5)  ---------------------------------------


     EDDAV:  cpu time    0.0760: real time    0.0766
       DOS:  cpu time    0.0000: real time    0.0001
    CHARGE:  cpu time    0.0360: real time    0.0357
    MIXING:  cpu time    0.0040: real time    0.0018
    --------------------------------------------
      LOOP:  cpu time    0.1160: real time    0.1202

 eigenvalue-minimisations  :    80
 total energy-change (2. order) :-0.1936334E-06  (-0.1934283E-06)
 number of electron       6.0000013 magnetization       1.6104222
 augmentation part        0.5129258 magnetization       0.0330895

 Broyden mixing:
  rms(total) = 0.65366E+00    rms(broyden)= 0.65309E+00
  rms(prec ) = 0.65329E+00
  weight for this iteration     100.00

 Free energy of the ion-electron system (eV)
  ---------------------------------------------------
  alpha Z        PSCENC =         0.33079207
  Ewald energy   TEWEN  =       -97.75476090
  -Hartree energ DENC   =      -276.26988979
  -exchange      EXHF   =         0.00000000
  -V(xc)+E(xc)   XCENC  =        26.26291933
  PAW double counting   =       245.86419871     -247.70903455
  entropy T*S    EENTRO =        -0.00770803
  eigenvalues    EBANDS =       -84.09333138
  atomic energy  EATOM  =       432.26319604
  Solvation  Ediel_sol  =         0.00000000
  ---------------------------------------------------
  free energy    TOTEN  =        -1.11361850 eV

  energy without entropy =       -1.10591047  energy(sigma->0) =       -1.10976448


--------------------------------------------------------------------------------------------------------




----------------------------------------- Iteration    1(   6)  ---------------------------------------


    POTLOK:  cpu time    0.0840: real time    0.0842
    SETDIJ:  cpu time    0.0080: real time    0.0057
     EDDAV:  cpu time    0.0600: real time    0.0630
       DOS:  cpu time    0.0000: real time    0.0002
    CHARGE:  cpu time    0.0280: real time    0.0279
    MIXING:  cpu time    0.0040: real time    0.0019
    --------------------------------------------
      LOOP:  cpu time    0.1840: real time    0.1875

 eigenvalue-minimisations  :    64
 total energy-change (2. order) : 0.1339992E+01  (-0.3142632E+00)
 number of electron       6.0000046 magnetization       1.7247428
 augmentation part        0.5363405 magnetization       0.1840637

 Broyden mixing:
  rms(total) = 0.63156E+00    rms(broyden)= 0.62122E+00
  rms(prec ) = 0.68221E+00
  weight for this iteration     100.00

 eigenvalues of (default mixing * dielectric matrix)
  average eigenvalue GAMMA=   0.5925
  0.5925

 Free energy of the ion-electron system (eV)
  ---------------------------------------------------
  alpha Z        PSCENC =         0.33079207
  Ewald energy   TEWEN  =       -97.75476090
  -Hartree energ DENC   =      -276.53544947
  -exchange      EXHF   =         0.00000000
  -V(xc)+E(xc)   XCENC  =        28.25427962
  PAW double counting   =       247.16247767     -248.87364834
  entropy T*S    EENTRO =        -0.00010913
  eigenvalues    EBANDS =       -84.62040440
  atomic energy  EATOM  =       432.26319604
  Solvation  Ediel_sol  =         0.00000000
  ---------------------------------------------------
  free energy    TOTEN  =         0.22637316 eV

  energy without entropy =        0.22648229  energy(sigma->0) =        0.22642772


--------------------------------------------------------------------------------------------------------




----------------------------------------- Iteration    1(   7)  ---------------------------------------


    POTLOK:  cpu time    0.0840: real time    0.0841
    SETDIJ:  cpu time    0.0080: real time    0.0057
     EDDAV:  cpu time    0.1280: real time    0.1271
       DOS:  cpu time    0.0000: real time    0.0001
    CHARGE:  cpu time    0.0280: real time    0.0279
    MIXING:  cpu time    0.0000: real time    0.0020
    --------------------------------------------
      LOOP:  cpu time    0.2480: real time    0.2526

 eigenvalue-minimisations  :   128
 total energy-change (2. order) :-0.1293123E+01  (-0.5911160E-01)
 number of electron       6.0000046 magnetization       1.8556498
 augmentation part        0.5320243 magnetization       0.3016448

 Broyden mixing:
  rms(total) = 0.39565E+00    rms(broyden)= 0.39470E+00
  rms(prec ) = 0.45504E+00
  weight for this iteration     100.00

 eigenvalues of (default mixing * dielectric matrix)
  average eigenvalue GAMMA=   0.8302
  0.8302  0.8302

 Free energy of the ion-electron system (eV)
  ---------------------------------------------------
  alpha Z        PSCENC =         0.33079207
  Ewald energy   TEWEN  =       -97.75476090
  -Hartree energ DENC   =      -277.48838247
  -exchange      EXHF   =         0.00000000
  -V(xc)+E(xc)   XCENC  =        27.61361979
  PAW double counting   =       249.34761535     -251.10748826
  entropy T*S    EENTRO =        -0.00000000
  eigenvalues    EBANDS =       -84.27134129
  atomic energy  EATOM  =       432.26319604
  Solvation  Ediel_sol  =         0.00000000
  ---------------------------------------------------
  free energy    TOTEN  =        -1.06674967 eV

  energy without entropy =       -1.06674967  energy(sigma->0) =       -1.06674967


--------------------------------------------------------------------------------------------------------




----------------------------------------- Iteration    1(   8)  ---------------------------------------


    POTLOK:  cpu time    0.0840: real time    0.0840
    SETDIJ:  cpu time    0.0040: real time    0.0057
     EDDAV:  cpu time    0.0960: real time    0.0952
       DOS:  cpu time    0.0000: real time    0.0001
    CHARGE:  cpu time    0.0280: real time    0.0278
    MIXING:  cpu time    0.0000: real time    0.0020
    --------------------------------------------
      LOOP:  cpu time    0.2160: real time    0.2214

 eigenvalue-minimisations  :    96
 total energy-change (2. order) :-0.5615277E+00  (-0.2381759E-01)
 number of electron       6.0000046 magnetization       2.0424278
 augmentation part        0.5226614 magnetization       0.4798959

 Broyden mixing:
  rms(total) = 0.26176E+00    rms(broyden)= 0.26169E+00
  rms(prec ) = 0.29858E+00
  weight for this iteration     100.00

 eigenvalues of (default mixing * dielectric matrix)
  average eigenvalue GAMMA=   1.3452
  2.4097  0.8129  0.8129

 Free energy of the ion-electron system (eV)
  ---------------------------------------------------
  alpha Z        PSCENC =         0.33079207
  Ewald energy   TEWEN  =       -97.75476090
  -Hartree energ DENC   =      -278.16488153
  -exchange      EXHF   =         0.00000000
  -V(xc)+E(xc)   XCENC  =        27.12452457
  PAW double counting   =       250.90704510     -252.70154387
  entropy T*S    EENTRO =        -0.00000000
  eigenvalues    EBANDS =       -83.63264883
  atomic energy  EATOM  =       432.26319604
  Solvation  Ediel_sol  =         0.00000000
  ---------------------------------------------------
  free energy    TOTEN  =        -1.62827735 eV

  energy without entropy =       -1.62827735  energy(sigma->0) =       -1.62827735


--------------------------------------------------------------------------------------------------------




----------------------------------------- Iteration    1(   9)  ---------------------------------------


    POTLOK:  cpu time    0.0840: real time    0.0841
    SETDIJ:  cpu time    0.0040: real time    0.0057
     EDDAV:  cpu time    0.0640: real time    0.0627
       DOS:  cpu time    0.0000: real time    0.0001
    CHARGE:  cpu time    0.0280: real time    0.0278
    MIXING:  cpu time    0.0040: real time    0.0021
    --------------------------------------------
      LOOP:  cpu time    0.1880: real time    0.1869

 eigenvalue-minimisations  :    64
 total energy-change (2. order) :-0.1627368E+00  (-0.2838804E-01)
 number of electron       6.0000045 magnetization       2.0284267
 augmentation part        0.5214562 magnetization       0.4588420

 Broyden mixing:
  rms(total) = 0.32838E-01    rms(broyden)= 0.32301E-01
  rms(prec ) = 0.35319E-01
  weight for this iteration     100.00

 eigenvalues of (default mixing * dielectric matrix)
  average eigenvalue GAMMA=   1.2783
  2.6053  0.9213  0.9213  0.6651

 Free energy of the ion-electron system (eV)
  ---------------------------------------------------
  alpha Z        PSCENC =         0.33079207
  Ewald energy   TEWEN  =       -97.75476090
  -Hartree energ DENC   =      -278.10975123
  -exchange      EXHF   =         0.00000000
  -V(xc)+E(xc)   XCENC  =        27.07882027
  PAW double counting   =       251.25935261     -253.08950657
  entropy T*S    EENTRO =        -0.00000000
  eigenvalues    EBANDS =       -83.76915645
  atomic energy  EATOM  =       432.26319604
  Solvation  Ediel_sol  =         0.00000000
  ---------------------------------------------------
  free energy    TOTEN  =        -1.79101417 eV

  energy without entropy =       -1.79101417  energy(sigma->0) =       -1.79101417


--------------------------------------------------------------------------------------------------------




----------------------------------------- Iteration    1(  10)  ---------------------------------------


    POTLOK:  cpu time    0.0840: real time    0.0837
    SETDIJ:  cpu time    0.0040: real time    0.0057
     EDDAV:  cpu time    0.0960: real time    0.0947
       DOS:  cpu time    0.0000: real time    0.0001
    CHARGE:  cpu time    0.0280: real time    0.0278
    MIXING:  cpu time    0.0040: real time    0.0022
    --------------------------------------------
      LOOP:  cpu time    0.2160: real time    0.2246

 eigenvalue-minimisations  :    96
 total energy-change (2. order) :-0.7544217E-01  (-0.1021077E-02)
 number of electron       6.0000045 magnetization       2.0069646
 augmentation part        0.5207328 magnetization       0.4387065

 Broyden mixing:
  rms(total) = 0.21889E-01    rms(broyden)= 0.21861E-01
  rms(prec ) = 0.25216E-01
  weight for this iteration     100.00

 eigenvalues of (default mixing * dielectric matrix)
  average eigenvalue GAMMA=   1.1515
  2.3865  1.0070  1.0070  0.6784  0.6784

 Free energy of the ion-electron system (eV)
  ---------------------------------------------------
  alpha Z        PSCENC =         0.33079207
  Ewald energy   TEWEN  =       -97.75476090
  -Hartree energ DENC   =      -278.18295279
  -exchange      EXHF   =         0.00000000
  -V(xc)+E(xc)   XCENC  =        27.03744808
  PAW double counting   =       251.44244937     -253.27349897
  entropy T*S    EENTRO =        -0.00000000
  eigenvalues    EBANDS =       -83.72912924
  atomic energy  EATOM  =       432.26319604
  Solvation  Ediel_sol  =         0.00000000
  ---------------------------------------------------
  free energy    TOTEN  =        -1.86645634 eV

  energy without entropy =       -1.86645634  energy(sigma->0) =       -1.86645634


--------------------------------------------------------------------------------------------------------




----------------------------------------- Iteration    1(  11)  ---------------------------------------


    POTLOK:  cpu time    0.0840: real time    0.0840
    SETDIJ:  cpu time    0.0080: real time    0.0057
     EDDAV:  cpu time    0.1080: real time    0.1097
       DOS:  cpu time    0.0000: real time    0.0001
    CHARGE:  cpu time    0.0280: real time    0.0278
    MIXING:  cpu time    0.0040: real time    0.0024
    --------------------------------------------
      LOOP:  cpu time    0.2320: real time    0.2362

 eigenvalue-minimisations  :   112
 total energy-change (2. order) :-0.2018947E-01  (-0.3685344E-03)
 number of electron       6.0000045 magnetization       1.9890542
 augmentation part        0.5206089 magnetization       0.4214754

 Broyden mixing:
  rms(total) = 0.52443E-02    rms(broyden)= 0.52365E-02
  rms(prec ) = 0.10814E-01
  weight for this iteration     100.00

 eigenvalues of (default mixing * dielectric matrix)
  average eigenvalue GAMMA=   1.1669
  2.0898  1.7008  0.9324  0.9324  0.6731  0.6731

 Free energy of the ion-electron system (eV)
  ---------------------------------------------------
  alpha Z        PSCENC =         0.33079207
  Ewald energy   TEWEN  =       -97.75476090
  -Hartree energ DENC   =      -278.11908555
  -exchange      EXHF   =         0.00000000
  -V(xc)+E(xc)   XCENC  =        27.01007939
  PAW double counting   =       251.34376707     -253.17287535
  entropy T*S    EENTRO =        -0.00000000
  eigenvalues    EBANDS =       -83.78775858
  atomic energy  EATOM  =       432.26319604
  Solvation  Ediel_sol  =         0.00000000
  ---------------------------------------------------
  free energy    TOTEN  =        -1.88664581 eV

  energy without entropy =       -1.88664581  energy(sigma->0) =       -1.88664581


--------------------------------------------------------------------------------------------------------




----------------------------------------- Iteration    1(  12)  ---------------------------------------


    POTLOK:  cpu time    0.0840: real time    0.0842
    SETDIJ:  cpu time    0.0080: real time    0.0057
     EDDAV:  cpu time    0.0920: real time    0.0952
       DOS:  cpu time    0.0000: real time    0.0001
    CHARGE:  cpu time    0.0280: real time    0.0277
    MIXING:  cpu time    0.0040: real time    0.0024
    --------------------------------------------
      LOOP:  cpu time    0.2160: real time    0.2207

 eigenvalue-minimisations  :    96
 total energy-change (2. order) : 0.1935872E-02  (-0.1773335E-03)
 number of electron       6.0000045 magnetization       1.9960779
 augmentation part        0.5209392 magnetization       0.4293263

 Broyden mixing:
  rms(total) = 0.96388E-02    rms(broyden)= 0.96346E-02
  rms(prec ) = 0.11790E-01
  weight for this iteration     100.00

 eigenvalues of (default mixing * dielectric matrix)
  average eigenvalue GAMMA=   1.2517
  2.3195  2.3195  0.9829  0.9829  0.7546  0.7546  0.6481

 Free energy of the ion-electron system (eV)
  ---------------------------------------------------
  alpha Z        PSCENC =         0.33079207
  Ewald energy   TEWEN  =       -97.75476090
  -Hartree energ DENC   =      -277.97590878
  -exchange      EXHF   =         0.00000000
  -V(xc)+E(xc)   XCENC  =        27.00095415
  PAW double counting   =       251.17462395     -253.00043746
  entropy T*S    EENTRO =        -0.00000000
  eigenvalues    EBANDS =       -83.92316902
  atomic energy  EATOM  =       432.26319604
  Solvation  Ediel_sol  =         0.00000000
  ---------------------------------------------------
  free energy    TOTEN  =        -1.88470994 eV

  energy without entropy =       -1.88470994  energy(sigma->0) =       -1.88470994


--------------------------------------------------------------------------------------------------------




----------------------------------------- Iteration    1(  13)  ---------------------------------------


    POTLOK:  cpu time    0.0840: real time    0.0838
    SETDIJ:  cpu time    0.0080: real time    0.0057
     EDDAV:  cpu time    0.0640: real time    0.0631
       DOS:  cpu time    0.0000: real time    0.0001
    CHARGE:  cpu time    0.0280: real time    0.0278
    MIXING:  cpu time    0.0000: real time    0.0026
    --------------------------------------------
      LOOP:  cpu time    0.1840: real time    0.1899

 eigenvalue-minimisations  :    64
 total energy-change (2. order) :-0.4816246E-02  (-0.8164060E-04)
 number of electron       6.0000045 magnetization       2.0001974
 augmentation part        0.5208538 magnetization       0.4332196

 Broyden mixing:
  rms(total) = 0.16018E-02    rms(broyden)= 0.15956E-02
  rms(prec ) = 0.33959E-02
  weight for this iteration     100.00

 eigenvalues of (default mixing * dielectric matrix)
  average eigenvalue GAMMA=   1.2931
  2.8748  2.2606  1.3021  0.8992  0.8992  0.7355  0.7355  0.6379

 Free energy of the ion-electron system (eV)
  ---------------------------------------------------
  alpha Z        PSCENC =         0.33079207
  Ewald energy   TEWEN  =       -97.75476090
  -Hartree energ DENC   =      -277.94575057
  -exchange      EXHF   =         0.00000000
  -V(xc)+E(xc)   XCENC  =        27.00206848
  PAW double counting   =       251.20935734     -253.03677896
  entropy T*S    EENTRO =        -0.00000000
  eigenvalues    EBANDS =       -83.95764968
  atomic energy  EATOM  =       432.26319604
  Solvation  Ediel_sol  =         0.00000000
  ---------------------------------------------------
  free energy    TOTEN  =        -1.88952619 eV

  energy without entropy =       -1.88952619  energy(sigma->0) =       -1.88952619


--------------------------------------------------------------------------------------------------------




----------------------------------------- Iteration    1(  14)  ---------------------------------------


    POTLOK:  cpu time    0.0840: real time    0.0839
    SETDIJ:  cpu time    0.0040: real time    0.0057
     EDDAV:  cpu time    0.1120: real time    0.1095
       DOS:  cpu time    0.0000: real time    0.0001
    CHARGE:  cpu time    0.0280: real time    0.0278
    MIXING:  cpu time    0.0000: real time    0.0027
    --------------------------------------------
      LOOP:  cpu time    0.2320: real time    0.2419

 eigenvalue-minimisations  :   112
 total energy-change (2. order) :-0.9193735E-03  (-0.1202847E-04)
 number of electron       6.0000045 magnetization       2.0013428
 augmentation part        0.5207255 magnetization       0.4342340

 Broyden mixing:
  rms(total) = 0.13891E-02    rms(broyden)= 0.13875E-02
  rms(prec ) = 0.25093E-02
  weight for this iteration     100.00

 eigenvalues of (default mixing * dielectric matrix)
  average eigenvalue GAMMA=   1.3165
  3.1469  2.3489  1.5424  0.9301  0.9301  0.8141  0.8141  0.6306  0.6914

 Free energy of the ion-electron system (eV)
  ---------------------------------------------------
  alpha Z        PSCENC =         0.33079207
  Ewald energy   TEWEN  =       -97.75476090
  -Hartree energ DENC   =      -277.94380684
  -exchange      EXHF   =         0.00000000
  -V(xc)+E(xc)   XCENC  =        27.00202204
  PAW double counting   =       251.24941563     -253.07727009
  entropy T*S    EENTRO =        -0.00000000
  eigenvalues    EBANDS =       -83.96003351
  atomic energy  EATOM  =       432.26319604
  Solvation  Ediel_sol  =         0.00000000
  ---------------------------------------------------
  free energy    TOTEN  =        -1.89044556 eV

  energy without entropy =       -1.89044556  energy(sigma->0) =       -1.89044556


--------------------------------------------------------------------------------------------------------




----------------------------------------- Iteration    1(  15)  ---------------------------------------


    POTLOK:  cpu time    0.0840: real time    0.0840
    SETDIJ:  cpu time    0.0040: real time    0.0057
     EDDAV:  cpu time    0.0760: real time    0.0771
       DOS:  cpu time    0.0000: real time    0.0001
    CHARGE:  cpu time    0.0320: real time    0.0282
    MIXING:  cpu time    0.0000: real time    0.0029
    --------------------------------------------
      LOOP:  cpu time    0.2000: real time    0.2035

 eigenvalue-minimisations  :    80
 total energy-change (2. order) :-0.2529547E-03  (-0.4195528E-05)
 number of electron       6.0000045 magnetization       2.0008266
 augmentation part        0.5207045 magnetization       0.4336888

 Broyden mixing:
  rms(total) = 0.10069E-02    rms(broyden)= 0.10068E-02
  rms(prec ) = 0.15226E-02
  weight for this iteration     100.00

 eigenvalues of (default mixing * dielectric matrix)
  average eigenvalue GAMMA=   1.3795
  3.3432  2.4945  1.9398  1.2976  0.9029  0.9029  0.8072  0.8072  0.6279  0.6715

 Free energy of the ion-electron system (eV)
  ---------------------------------------------------
  alpha Z        PSCENC =         0.33079207
  Ewald energy   TEWEN  =       -97.75476090
  -Hartree energ DENC   =      -277.92987343
  -exchange      EXHF   =         0.00000000
  -V(xc)+E(xc)   XCENC  =        27.00033649
  PAW double counting   =       251.26055852     -253.08821410
  entropy T*S    EENTRO =        -0.00000000
  eigenvalues    EBANDS =       -83.97273320
  atomic energy  EATOM  =       432.26319604
  Solvation  Ediel_sol  =         0.00000000
  ---------------------------------------------------
  free energy    TOTEN  =        -1.89069852 eV

  energy without entropy =       -1.89069852  energy(sigma->0) =       -1.89069852


--------------------------------------------------------------------------------------------------------




----------------------------------------- Iteration    1(  16)  ---------------------------------------


    POTLOK:  cpu time    0.0840: real time    0.0845
    SETDIJ:  cpu time    0.0040: real time    0.0059
     EDDAV:  cpu time    0.0920: real time    0.0920
       DOS:  cpu time    0.0000: real time    0.0001
    CHARGE:  cpu time    0.0280: real time    0.0282
    MIXING:  cpu time    0.0040: real time    0.0030
    --------------------------------------------
      LOOP:  cpu time    0.2160: real time    0.2204

 eigenvalue-minimisations  :    96
 total energy-change (2. order) :-0.2941571E-03  (-0.3610066E-05)
 number of electron       6.0000045 magnetization       2.0002368
 augmentation part        0.5207393 magnetization       0.4331297

 Broyden mixing:
  rms(total) = 0.48940E-03    rms(broyden)= 0.48930E-03
  rms(prec ) = 0.64228E-03
  weight for this iteration     100.00

 eigenvalues of (default mixing * dielectric matrix)
  average eigenvalue GAMMA=   1.5122
  4.4669  2.8340  2.3421  1.4481  0.9278  0.9278  0.8353  0.8353  0.7300  0.6618
  0.6251

 Free energy of the ion-electron system (eV)
  ---------------------------------------------------
  alpha Z        PSCENC =         0.33079207
  Ewald energy   TEWEN  =       -97.75476090
  -Hartree energ DENC   =      -277.91359619
  -exchange      EXHF   =         0.00000000
  -V(xc)+E(xc)   XCENC  =        26.99935021
  PAW double counting   =       251.25615073     -253.08354909
  entropy T*S    EENTRO =        -0.00000000
  eigenvalues    EBANDS =       -83.98857555
  atomic energy  EATOM  =       432.26319604
  Solvation  Ediel_sol  =         0.00000000
  ---------------------------------------------------
  free energy    TOTEN  =        -1.89099267 eV

  energy without entropy =       -1.89099267  energy(sigma->0) =       -1.89099267


--------------------------------------------------------------------------------------------------------




----------------------------------------- Iteration    1(  17)  ---------------------------------------


    POTLOK:  cpu time    0.0840: real time    0.0845
    SETDIJ:  cpu time    0.0040: real time    0.0059
     EDDAV:  cpu time    0.0920: real time    0.0919
       DOS:  cpu time    0.0000: real time    0.0001
    --------------------------------------------
      LOOP:  cpu time    0.1840: real time    0.1879

 eigenvalue-minimisations  :    96
 total energy-change (2. order) :-0.5165915E-04  (-0.3423918E-06)
 number of electron       6.0000045 magnetization       2.0002368
 augmentation part        0.5207393 magnetization       0.4331297

 Free energy of the ion-electron system (eV)
  ---------------------------------------------------
  alpha Z        PSCENC =         0.33079207
  Ewald energy   TEWEN  =       -97.75476090
  -Hartree energ DENC   =      -277.91186468
  -exchange      EXHF   =         0.00000000
  -V(xc)+E(xc)   XCENC  =        26.99963283
  PAW double counting   =       251.25432337     -253.08173631
  entropy T*S    EENTRO =        -0.00000000
  eigenvalues    EBANDS =       -83.99062674
  atomic energy  EATOM  =       432.26319604
  Solvation  Ediel_sol  =         0.00000000
  ---------------------------------------------------
  free energy    TOTEN  =        -1.89104433 eV

  energy without entropy =       -1.89104433  energy(sigma->0) =       -1.89104433


--------------------------------------------------------------------------------------------------------




 average (electrostatic) potential at core
  the test charge radii are     0.7215
  (the norm of the test charge is              1.0000)
       1 -82.7336
 
 
 
 E-fermi :  -7.3370     XC(G=0):  -0.9021     alpha+bet : -0.1783


 spin component 1

 k-point     1 :       0.0000    0.0000    0.0000
  band No.  band energies     occupation 
      1     -25.0681      1.00000
      2     -10.7439      1.00000
      3     -10.7432      1.00000
      4      -8.6435      1.00000
      5      -0.5774      0.00000
      6       1.8057      0.00000
      7       1.9960      0.00000
      8       2.0157      0.00000
      9       2.2386      0.00000
     10       2.3865      0.00000
     11       2.6205      0.00000
     12       4.5383      0.00000
     13       4.5847      0.00000
     14       4.7559      0.00000
     15       4.9233      0.00000
     16       4.9931      0.00000

 spin component 2

 k-point     1 :       0.0000    0.0000    0.0000
  band No.  band energies     occupation 
      1     -21.4029      1.00000
      2      -7.3890      1.00000
      3      -6.2820      0.00000
      4      -6.2806      0.00000
      5      -0.3364      0.00000
      6       1.9149      0.00000
      7       2.1690      0.00000
      8       2.3888      0.00000
      9       2.4445      0.00000
     10       2.7662      0.00000
     11       2.8187      0.00000
     12       4.3342      0.00000
     13       4.6377      0.00000
     14       4.6698      0.00000
     15       4.8969      0.00000
     16       4.9238      0.00000


--------------------------------------------------------------------------------------------------------


 soft charge-density along one line, spin component           1
         0         1         2         3         4         5         6         7         8         9
 total charge-density along one line
 
 soft charge-density along one line, spin component           2
         0         1         2         3         4         5         6         7         8         9
 total charge-density along one line
 
 pseudopotential strength for first ion, spin component:           1
 14.644  -0.668   0.000  -0.000   0.000  -0.000   0.000  -0.000
 -0.668   0.146  -0.000   0.000  -0.000   0.000  -0.000   0.000
  0.000  -0.000 -11.638   0.000  -0.000   0.583  -0.000   0.000
 -0.000   0.000   0.000 -11.066   0.000  -0.000   0.454  -0.000
  0.000  -0.000  -0.000   0.000 -11.638   0.000  -0.000   0.583
 -0.000   0.000   0.583  -0.000   0.000   0.034   0.000  -0.000
  0.000  -0.000  -0.000   0.454  -0.000   0.000   0.073   0.000
 -0.000   0.000   0.000  -0.000   0.583  -0.000   0.000   0.034
 pseudopotential strength for first ion, spin component:           2
 13.653  -0.519   0.000  -0.000   0.000  -0.000   0.000   0.000
 -0.519   0.121  -0.000   0.000   0.000   0.000  -0.000   0.000
  0.000  -0.000 -10.407   0.000  -0.000   0.275  -0.000   0.000
 -0.000   0.000   0.000 -10.702  -0.000  -0.000   0.362   0.000
  0.000   0.000  -0.000  -0.000 -10.407   0.000   0.000   0.275
 -0.000   0.000   0.275  -0.000   0.000   0.129   0.000  -0.000
  0.000  -0.000  -0.000   0.362   0.000   0.000   0.106  -0.000
  0.000   0.000   0.000   0.000   0.275  -0.000  -0.000   0.129
 total augmentation occupancy for first ion, spin component:           1
  2.000   0.066   0.000   0.000   0.000   0.000   0.000   0.000
  0.066   0.003   0.000   0.000   0.000   0.000   0.000   0.000
  0.000   0.000   1.041   0.000   0.000  -0.006   0.000   0.000
  0.000   0.000   0.000   1.961   0.000   0.000   0.038   0.000
  0.000   0.000   0.000   0.000   1.041  -0.000   0.000  -0.006
  0.000   0.000  -0.006   0.000  -0.000   0.000   0.000  -0.000
  0.000   0.000   0.000   0.038   0.000   0.000   0.001   0.000
  0.000   0.000   0.000   0.000  -0.006  -0.000   0.000   0.000
 total augmentation occupancy for first ion, spin component:           2
  0.039  -0.038   0.000   0.000   0.000   0.000   0.000   0.000
 -0.038  -0.003   0.000   0.000   0.000   0.000   0.000   0.000
  0.000   0.000   1.041   0.000  -0.000  -0.006   0.000  -0.000
  0.000   0.000   0.000   0.037   0.000   0.000  -0.017   0.000
  0.000   0.000  -0.000   0.000   1.041   0.000   0.000  -0.006
  0.000   0.000  -0.006   0.000   0.000   0.000   0.000   0.000
  0.000   0.000   0.000  -0.017   0.000   0.000  -0.001   0.000
  0.000   0.000  -0.000   0.000  -0.006   0.000   0.000   0.000


------------------------ aborting loop because EDIFF is reached ----------------------------------------


    CHARGE:  cpu time    0.0280: real time    0.0264
    FORLOC:  cpu time    0.0000: real time    0.0011
    FORNL :  cpu time    0.0040: real time    0.0035
    STRESS:  cpu time    0.0360: real time    0.0394
    FORHAR:  cpu time    0.0040: real time    0.0081
    MIXING:  cpu time    0.0040: real time    0.0033
    OFIELD:  cpu time    0.0000: real time    0.0001

  FORCE on cell =-STRESS in cart. coord.  units (eV):
  Direction    XX          YY          ZZ          XY          YZ          ZX
  --------------------------------------------------------------------------------------
  Alpha Z     0.33079     0.33079     0.33079
  Ewald     -25.83867   -32.64485   -39.27124    -0.00000     0.00000    -0.00000
  Hartree    94.71897    88.22735    94.96692    -0.00000    -0.00000    -0.00000
  E(xc)     -29.05372   -29.05400   -28.89417     0.00000     0.00000    -0.00000
  Local    -144.89990  -131.60671  -156.32768     0.00000     0.00000     0.00000
  n-local   -18.49570   -18.49851   -25.32067     0.00000     0.00000    -0.00000
  augment     4.51854     4.51735     8.35901     0.00000    -0.00000    -0.00000
  Kinetic   117.99034   117.98357   145.17001    -0.00000    -0.00000     0.00000
  Fock        0.00000     0.00000     0.00000     0.00000     0.00000     0.00000
  -------------------------------------------------------------------------------------
  Total      -0.72935    -0.74501    -0.98703     0.00000     0.00000     0.00000
  in kB      -2.78225    -2.84199    -3.76523     0.00000     0.00000     0.00000
  external pressure =       -3.13 kB  Pullay stress =        0.00 kB


 VOLUME and BASIS-vectors are now :
 -----------------------------------------------------------------------------
  energy-cutoff  :      400.00
  volume of cell :      420.00
      direct lattice vectors                 reciprocal lattice vectors
     7.000000000  0.000000000  0.000000000     0.142857143  0.000000000  0.000000000
     0.000000000  7.500000000  0.000000000     0.000000000  0.133333333  0.000000000
     0.000000000  0.000000000  8.000000000     0.000000000  0.000000000  0.125000000

  length of vectors
     7.000000000  7.500000000  8.000000000     0.142857143  0.133333333  0.125000000


 FORCES acting on ions
    electron-ion (+dipol)            ewald-force                    non-local-force                 convergence-correction
 -----------------------------------------------------------------------------------------------
   -.246E-15 -.137E-15 -.828E-15   -.335E-16 -.115E-16 0.347E-16   0.000E+00 0.000E+00 0.000E+00   0.233E-13 -.817E-14 -.565E-14
 -----------------------------------------------------------------------------------------------
   -.246E-15 -.137E-15 -.828E-15   -.335E-16 -.115E-16 0.347E-16   0.000E+00 0.000E+00 0.000E+00   0.233E-13 -.817E-14 -.565E-14
 
 
 POSITION                                       TOTAL-FORCE (eV/Angst)
 -----------------------------------------------------------------------------------
      0.00000      0.00000      0.00000         0.000000      0.000000      0.000000
 -----------------------------------------------------------------------------------
    total drift:                                0.000000     -0.000000     -0.000000


--------------------------------------------------------------------------------------------------------



  FREE ENERGIE OF THE ION-ELECTRON SYSTEM (eV)
  ---------------------------------------------------
  free  energy   TOTEN  =        -1.89104433 eV

  energy  without entropy=       -1.89104433  energy(sigma->0) =       -1.89104433
 


--------------------------------------------------------------------------------------------------------


    POTLOK:  cpu time    0.0920: real time    0.0930


--------------------------------------------------------------------------------------------------------


 writing wavefunctions
     LOOP+:  cpu time    6.4404: real time    6.5821
    4ORBIT:  cpu time    0.0000: real time    0.0000

 total amount of memory used by VASP on root node    39184. kBytes
========================================================================

   base      :      30000. kBytes
   nonl-proj :        610. kBytes
   fftplans  :       1322. kBytes
   grid      :       7002. kBytes
   one-center:          6. kBytes
   wavefun   :        244. kBytes
 
  
  
 General timing and accounting informations for this job:
 ========================================================
  
                  Total CPU time used (sec):       12.037
                            User time (sec):        6.980
                          System time (sec):        5.056
                         Elapsed time (sec):       12.316
  
                   Maximum memory used (kb):       37628.
                   Average memory used (kb):           0.
  
                          Minor page faults:        11884
                          Major page faults:            0
                 Voluntary context switches:          605
