<?xml version="1.0" encoding="ISO-8859-1"?>
<modeling>
 <generator>
  <i name="program" type="string">vasp </i>
  <i name="version" type="string">5.4.1  </i>
  <i name="subversion" type="string">24Jun15 (build Apr 04 2016 10:44:54) complex                          parallel </i>
  <i name="platform" type="string">Titan </i>
  <i name="date" type="string">2018 12 04 </i>
  <i name="time" type="string">13:31:30 </i>
 </generator>
 <incar>
  <i type="string" name="SYSTEM"> O atom in a box</i>
  <i type="string" name="PREC">normal</i>
  <i type="int" name="ISPIN">     2</i>
  <i type="int" name="ISMEAR">     0</i>
  <i name="SIGMA">      0.01000000</i>
  <v type="int" name="KPOINT_BSE">    -1     0     0     0</v>
 </incar>
 <kpoints>
  <varray name="kpointlist" >
   <v>       0.00000000       0.00000000       0.00000000 </v>
  </varray>
  <varray name="weights" >
   <v>       1.00000000 </v>
  </varray>
 </kpoints>
 <parameters>
  <separator name="general" >
   <i type="string" name="SYSTEM">O atom in a box</i>
   <i type="logical" name="LCOMPAT"> F  </i>
  </separator>
  <separator name="electronic" >
   <i type="string" name="PREC">normal</i>
   <i name="ENMAX">    400.00000000</i>
   <i name="ENAUG">    605.39200000</i>
   <i name="EDIFF">      0.00010000</i>
   <i type="int" name="IALGO">    38</i>
   <i type="int" name="IWAVPR">    10</i>
   <i type="int" name="NBANDS">    16</i>
   <i name="NELECT">      6.00000000</i>
   <i type="int" name="TURBO">     0</i>
   <i type="int" name="IRESTART">     0</i>
   <i type="int" name="NREBOOT">     0</i>
   <i type="int" name="NMIN">     0</i>
   <i name="EREF">      0.00000000</i>
   <separator name="electronic smearing" >
    <i type="int" name="ISMEAR">     0</i>
    <i name="SIGMA">      0.01000000</i>
    <i name="KSPACING">      0.50000000</i>
    <i type="logical" name="KGAMMA"> T  </i>
   </separator>
   <separator name="electronic projectors" >
    <i type="logical" name="LREAL"> F  </i>
    <v name="ROPT">      0.00000000</v>
    <i type="int" name="LMAXPAW">  -100</i>
    <i type="int" name="LMAXMIX">     2</i>
    <i type="logical" name="NLSPLINE"> F  </i>
   </separator>
   <separator name="electronic startup" >
    <i type="int" name="ISTART">     0</i>
    <i type="int" name="ICHARG">     2</i>
    <i type="int" name="INIWAV">     1</i>
   </separator>
   <separator name="electronic spin" >
    <i type="int" name="ISPIN">     2</i>
    <i type="logical" name="LNONCOLLINEAR"> F  </i>
    <v name="MAGMOM">      1.00000000</v>
    <i name="NUPDOWN">     -1.00000000</i>
    <i type="logical" name="LSORBIT"> F  </i>
    <v name="SAXIS">      0.00000000      0.00000000      1.00000000</v>
    <i type="logical" name="LSPIRAL"> F  </i>
    <v name="QSPIRAL">      0.00000000      0.00000000      0.00000000</v>
    <i type="logical" name="LZEROZ"> F  </i>
   </separator>
   <separator name="electronic exchange-correlation" >
    <i type="logical" name="LASPH"> F  </i>
    <i type="logical" name="LMETAGGA"> F  </i>
   </separator>
   <separator name="electronic convergence" >
    <i type="int" name="NELM">    60</i>
    <i type="int" name="NELMDL">    -5</i>
    <i type="int" name="NELMIN">     2</i>
    <i name="ENINI">    400.00000000</i>
    <separator name="electronic convergence detail" >
     <i type="logical" name="LDIAG"> T  </i>
     <i type="logical" name="LSUBROT"> F  </i>
     <i name="WEIMIN">      0.00000000</i>
     <i name="EBREAK">      0.00000156</i>
     <i name="DEPER">      0.30000000</i>
     <i type="int" name="NRMM">     4</i>
     <i name="TIME">      0.40000000</i>
    </separator>
   </separator>
   <separator name="electronic mixer" >
    <i name="AMIX">      0.40000000</i>
    <i name="BMIX">      1.00000000</i>
    <i name="AMIN">      0.10000000</i>
    <i name="AMIX_MAG">      1.60000000</i>
    <i name="BMIX_MAG">      1.00000000</i>
    <separator name="electronic mixer details" >
     <i type="int" name="IMIX">     4</i>
     <i type="logical" name="MIXFIRST"> F  </i>
     <i type="int" name="MAXMIX">   -45</i>
     <i name="WC">    100.00000000</i>
     <i type="int" name="INIMIX">     1</i>
     <i type="int" name="MIXPRE">     1</i>
     <i type="int" name="MREMOVE">     5</i>
    </separator>
   </separator>
   <separator name="electronic dipolcorrection" >
    <i type="logical" name="LDIPOL"> F  </i>
    <i type="logical" name="LMONO"> F  </i>
    <i type="int" name="IDIPOL">     0</i>
    <i name="EPSILON">      1.00000000</i>
    <v name="DIPOL">   -100.00000000   -100.00000000   -100.00000000</v>
    <i name="EFIELD">      0.00000000</i>
   </separator>
  </separator>
  <separator name="grids" >
   <i type="int" name="NGX">    36</i>
   <i type="int" name="NGY">    40</i>
   <i type="int" name="NGZ">    40</i>
   <i type="int" name="NGXF">    72</i>
   <i type="int" name="NGYF">    80</i>
   <i type="int" name="NGZF">    80</i>
   <i type="logical" name="ADDGRID"> F  </i>
  </separator>
  <separator name="ionic" >
   <i type="int" name="NSW">     0</i>
   <i type="int" name="IBRION">    -1</i>
   <i type="int" name="ISIF">     2</i>
   <i name="PSTRESS">      0.00000000</i>
   <i name="EDIFFG">      0.00100000</i>
   <i type="int" name="NFREE">     0</i>
   <i name="POTIM">      0.50000000</i>
   <i name="SMASS">     -3.00000000</i>
   <i name="SCALEE">      1.00000000</i>
  </separator>
  <separator name="ionic md" >
   <i name="TEBEG">      0.00010000</i>
   <i name="TEEND">      0.00010000</i>
   <i type="int" name="NBLOCK">     1</i>
   <i type="int" name="KBLOCK">     1</i>
   <i type="int" name="NPACO">   256</i>
   <i name="APACO">     16.00000000</i>
  </separator>
  <separator name="symmetry" >
   <i type="int" name="ISYM">     2</i>
   <i name="SYMPREC">      0.00001000</i>
  </separator>
  <separator name="dos" >
   <i type="logical" name="LORBIT"> F  </i>
   <v name="RWIGS">     -1.00000000</v>
   <i type="int" name="NEDOS">   301</i>
   <i name="EMIN">     10.00000000</i>
   <i name="EMAX">    -10.00000000</i>
   <i name="EFERMI">      0.00000000</i>
  </separator>
  <separator name="writing" >
   <i type="int" name="NWRITE">     2</i>
   <i type="logical" name="LWAVE"> T  </i>
   <i type="logical" name="LCHARG"> T  </i>
   <i type="logical" name="LPARD"> F  </i>
   <i type="logical" name="LVTOT"> F  </i>
   <i type="logical" name="LVHAR"> F  </i>
   <i type="logical" name="LELF"> F  </i>
   <i type="logical" name="LOPTICS"> F  </i>
   <v name="STM">      0.00000000      0.00000000      0.00000000      0.00000000      0.00000000      0.00000000      0.00000000</v>
  </separator>
  <separator name="performance" >
   <i type="int" name="NPAR">    16</i>
   <i type="int" name="NSIM">     4</i>
   <i type="int" name="NBLK">    -1</i>
   <i type="logical" name="LPLANE"> T  </i>
   <i type="logical" name="LSCALAPACK"> T  </i>
   <i type="logical" name="LSCAAWARE"> F  </i>
   <i type="logical" name="LSCALU"> F  </i>
   <i type="logical" name="LASYNC"> F  </i>
   <i type="logical" name="LORBITALREAL"> F  </i>
  </separator>
  <separator name="miscellaneous" >
   <i type="int" name="IDIOT">     3</i>
   <i type="logical" name="LMUSIC"> F  </i>
   <v name="POMASS">     16.00000000</v>
   <v name="DARWINR">      0.00000000</v>
   <v name="DARWINV">      1.00000000</v>
   <i type="logical" name="LCORR"> T  </i>
  </separator>
  <i type="logical" name="GGA_COMPAT"> T  </i>
  <i type="logical" name="LBERRY"> F  </i>
  <i type="int" name="ICORELEVEL">     0</i>
  <i type="logical" name="LDAU"> F  </i>
  <i type="int" name="I_CONSTRAINED_M">     0</i>
  <separator name="electronic exchange-correlation" >
   <i type="string" name="GGA">--</i>
   <i type="int" name="VOSKOWN">     0</i>
   <i type="logical" name="LHFCALC"> F  </i>
   <i type="string" name="PRECFOCK"></i>
   <i type="logical" name="LSYMGRAD"> F  </i>
   <i type="logical" name="LHFONE"> F  </i>
   <i type="logical" name="LRHFCALC"> F  </i>
   <i type="logical" name="LTHOMAS"> F  </i>
   <i type="logical" name="LMODELHF"> F  </i>
   <i name="ENCUT4O">     -1.00000000</i>
   <i type="int" name="EXXOEP">     0</i>
   <i type="int" name="FOURORBIT">     0</i>
   <i name="AEXX">      0.00000000</i>
   <i name="HFALPHA">      0.00000000</i>
   <i name="MCALPHA">      0.00000000</i>
   <i name="ALDAX">      1.00000000</i>
   <i name="AGGAX">      1.00000000</i>
   <i name="ALDAC">      1.00000000</i>
   <i name="AGGAC">      1.00000000</i>
   <i type="int" name="NKREDX">     1</i>
   <i type="int" name="NKREDY">     1</i>
   <i type="int" name="NKREDZ">     1</i>
   <i type="logical" name="SHIFTRED"> F  </i>
   <i type="logical" name="ODDONLY"> F  </i>
   <i type="logical" name="EVENONLY"> F  </i>
   <i type="int" name="LMAXFOCK">     0</i>
   <i type="int" name="NMAXFOCKAE">     0</i>
   <i type="logical" name="LFOCKAEDFT"> F  </i>
   <i name="HFSCREEN">      0.00000000</i>
   <i name="HFSCREENC">      0.00000000</i>
   <i type="int" name="NBANDSGWLOW">     0</i>
  </separator>
  <separator name="vdW DFT" >
   <i type="logical" name="LUSE_VDW"> F  </i>
   <i name="Zab_VDW">     -0.84910000</i>
   <i name="PARAM1">      0.12340000</i>
   <i name="PARAM2">      1.00000000</i>
   <i name="PARAM3">      0.00000000</i>
  </separator>
  <separator name="model GW" >
   <i type="int" name="MODEL_GW">     0</i>
   <i name="MODEL_EPS0">    252.00000000</i>
   <i name="MODEL_ALPHA">      1.00000000</i>
  </separator>
  <separator name="linear response parameters" >
   <i type="logical" name="LEPSILON"> F  </i>
   <i type="logical" name="LRPA"> F  </i>
   <i type="logical" name="LNABLA"> F  </i>
   <i type="logical" name="LVEL"> F  </i>
   <i type="int" name="KINTER">     0</i>
   <i name="CSHIFT">      0.10000000</i>
   <i name="OMEGAMAX">     -1.00000000</i>
   <i name="DEG_THRESHOLD">      0.00200000</i>
  </separator>
  <separator name="orbital magnetization" >
   <i type="logical" name="NUCIND"> F  </i>
   <v name="MAGPOS">      0.00000000      0.00000000      0.00000000</v>
   <i type="logical" name="LNICSALL"> T  </i>
   <i type="logical" name="ORBITALMAG"> F  </i>
   <i type="logical" name="LMAGBLOCH"> F  </i>
   <i type="logical" name="LCHIMAG"> F  </i>
   <i type="logical" name="LGAUGE"> T  </i>
   <i type="int" name="MAGATOM">     0</i>
   <v name="MAGDIPOL">      0.00000000      0.00000000      0.00000000</v>
   <v name="AVECCONST">      0.00000000      0.00000000      0.00000000</v>
  </separator>
  <separator name="response functions" >
   <i type="logical" name="LADDER"> F  </i>
   <i type="logical" name="LFXC"> F  </i>
   <i type="logical" name="LHARTREE"> T  </i>
   <i type="int" name="IBSE">     0</i>
   <v type="int" name="KPOINT">    -1     0     0     0</v>
   <i type="logical" name="LTCTE"> F  </i>
   <i type="logical" name="LTETE"> F  </i>
   <i type="logical" name="LTRIPLET"> F  </i>
   <i type="logical" name="LFXCEPS"> F  </i>
   <i type="logical" name="LFXHEG"> F  </i>
   <i type="int" name="NATURALO">     0</i>
   <i type="logical" name="L2ORDER"> F  </i>
   <i type="logical" name="LUSEW"> F  </i>
   <i name="ENCUTGW">     -2.00000000</i>
   <i name="ENCUTGWSOFT">     -2.00000000</i>
   <i name="ENCUTLF">     -1.00000000</i>
   <i type="int" name="LMAXMP2">    -1</i>
   <i name="SCISSOR">      0.00000000</i>
   <i type="int" name="NOMEGA">     0</i>
   <i type="int" name="NOMEGAR">     0</i>
   <i type="int" name="NBANDSGW">    -1</i>
   <i type="int" name="NBANDSO">    -1</i>
   <i type="int" name="NBANDSV">    -1</i>
   <i type="int" name="NELM">     1</i>
   <i type="int" name="NELMHF">     1</i>
   <i type="int" name="DIM">     3</i>
   <i type="int" name="ANTIRES">     0</i>
   <i name="OMEGAMAX">    -30.00000000</i>
   <i name="OMEGAMIN">    -30.00000000</i>
   <i name="OMEGATL">   -200.00000000</i>
   <i type="int" name="OMEGAGRID">     0</i>
   <i name="CSHIFT">     -0.10000000</i>
   <i type="logical" name="SELFENERGY"> F  </i>
   <i type="logical" name="LSPECTRAL"> F  </i>
   <i type="logical" name="LSPECTRALGW"> F  </i>
   <i type="logical" name="LSINGLES"> F  </i>
   <i type="logical" name="LFERMIGW"> F  </i>
   <i type="logical" name="ODDONLYGW"> F  </i>
   <i type="logical" name="EVENONLYGW"> F  </i>
   <i type="int" name="NKREDLFX">     1</i>
   <i type="int" name="NKREDLFY">     1</i>
   <i type="int" name="NKREDLFZ">     1</i>
   <i type="int" name="MAXMEM">  1800</i>
   <i type="int" name="TELESCOPE">     0</i>
   <i type="int" name="TAUPAR">     1</i>
   <i type="int" name="OMEGAPAR">    -1</i>
   <i name="LAMBDA">      1.00000000</i>
  </separator>
  <separator name="External order field" >
   <i name="OFIELD_KAPPA">      0.00000000</i>
   <v name="OFIELD_K">      0.00000000      0.00000000      0.00000000</v>
   <i name="OFIELD_Q6_NEAR">      0.00000000</i>
   <i name="OFIELD_Q6_FAR">      0.00000000</i>
   <i name="OFIELD_A">      0.00000000</i>
  </separator>
 </parameters>
 <atominfo>
  <atoms>       1 </atoms>
  <types>       1 </types>
  <array name="atoms" >
   <dimension dim="1">ion</dimension>
   <field type="string">element</field>
   <field type="int">atomtype</field>
   <set>
    <rc><c>O </c><c>   1</c></rc>
   </set>
  </array>
  <array name="atomtypes" >
   <dimension dim="1">type</dimension>
   <field type="int">atomspertype</field>
   <field type="string">element</field>
   <field>mass</field>
   <field>valence</field>
   <field type="string">pseudopotential</field>
   <set>
    <rc><c>   1</c><c>O </c><c>     16.00000000</c><c>      6.00000000</c><c> PAW_RPBE O 08Apr2002                   </c></rc>
   </set>
  </array>
 </atominfo>
 <structure name="initialpos" >
  <crystal>
   <varray name="basis" >
    <v>       7.00000000       0.00000000       0.00000000 </v>
    <v>       0.00000000       7.50000000       0.00000000 </v>
    <v>       0.00000000       0.00000000       8.00000000 </v>
   </varray>
   <i name="volume">    420.00000000 </i>
   <varray name="rec_basis" >
    <v>       0.14285714       0.00000000       0.00000000 </v>
    <v>       0.00000000       0.13333333       0.00000000 </v>
    <v>       0.00000000       0.00000000       0.12500000 </v>
   </varray>
  </crystal>
  <varray name="positions" >
   <v>       0.00000000       0.00000000       0.00000000 </v>
  </varray>
 </structure>
 <calculation>
  <scstep>
   <time name="dav">    0.06    0.06</time>
   <time name="total">    0.19    0.19</time>
   <energy>
    <i name="alphaZ">      0.33079207 </i>
    <i name="ewald">    -97.75476090 </i>
    <i name="hartreedc">   -276.26988979 </i>
    <i name="XCdc">     26.26291933 </i>
    <i name="pawpsdc">    245.86419871 </i>
    <i name="pawaedc">   -247.70903455 </i>
    <i name="eentropy">     -0.00000000 </i>
    <i name="bandstr">    -49.61114532 </i>
    <i name="atom">    432.26319604 </i>
    <i name="e_fr_energy">     33.37627559 </i>
    <i name="e_wo_entrp">     33.37627559 </i>
    <i name="e_0_energy">     33.37627559 </i>
   </energy>
  </scstep>
  <scstep>
   <time name="dav">    0.13    0.13</time>
   <time name="total">    0.13    0.13</time>
   <energy>
    <i name="e_fr_energy">     -0.72141730 </i>
    <i name="e_wo_entrp">     -0.72139345 </i>
    <i name="e_0_energy">     -0.72140538 </i>
   </energy>
  </scstep>
  <scstep>
   <time name="dav">    0.06    0.06</time>
   <time name="total">    0.06    0.07</time>
   <energy>
    <i name="e_fr_energy">     -1.11217290 </i>
    <i name="e_wo_entrp">     -1.10447161 </i>
    <i name="e_0_energy">     -1.10832226 </i>
   </energy>
  </scstep>
  <scstep>
   <time name="dav">    0.11    0.11</time>
   <time name="total">    0.11    0.11</time>
   <energy>
    <i name="e_fr_energy">     -1.11361830 </i>
    <i name="e_wo_entrp">     -1.10591027 </i>
    <i name="e_0_energy">     -1.10976429 </i>
   </energy>
  </scstep>
  <scstep>
   <time name="dav">    0.08    0.08</time>
   <time name="total">    0.12    0.12</time>
   <energy>
    <i name="e_fr_energy">     -1.11361850 </i>
    <i name="e_wo_entrp">     -1.10591047 </i>
    <i name="e_0_energy">     -1.10976448 </i>
   </energy>
  </scstep>
  <scstep>
   <time name="dav">    0.06    0.06</time>
   <time name="total">    0.18    0.19</time>
   <energy>
    <i name="e_fr_energy">      0.22637316 </i>
    <i name="e_wo_entrp">      0.22648229 </i>
    <i name="e_0_energy">      0.22642772 </i>
   </energy>
  </scstep>
  <scstep>
   <time name="dav">    0.13    0.13</time>
   <time name="total">    0.25    0.25</time>
   <energy>
    <i name="e_fr_energy">     -1.06674967 </i>
    <i name="e_wo_entrp">     -1.06674967 </i>
    <i name="e_0_energy">     -1.06674967 </i>
   </energy>
  </scstep>
  <scstep>
   <time name="dav">    0.10    0.10</time>
   <time name="total">    0.22    0.22</time>
   <energy>
    <i name="e_fr_energy">     -1.62827735 </i>
    <i name="e_wo_entrp">     -1.62827735 </i>
    <i name="e_0_energy">     -1.62827735 </i>
   </energy>
  </scstep>
  <scstep>
   <time name="dav">    0.06    0.06</time>
   <time name="total">    0.19    0.19</time>
   <energy>
    <i name="e_fr_energy">     -1.79101417 </i>
    <i name="e_wo_entrp">     -1.79101417 </i>
    <i name="e_0_energy">     -1.79101417 </i>
   </energy>
  </scstep>
  <scstep>
   <time name="dav">    0.10    0.09</time>
   <time name="total">    0.22    0.22</time>
   <energy>
    <i name="e_fr_energy">     -1.86645634 </i>
    <i name="e_wo_entrp">     -1.86645634 </i>
    <i name="e_0_energy">     -1.86645634 </i>
   </energy>
  </scstep>
  <scstep>
   <time name="dav">    0.11    0.11</time>
   <time name="total">    0.23    0.24</time>
   <energy>
    <i name="e_fr_energy">     -1.88664581 </i>
    <i name="e_wo_entrp">     -1.88664581 </i>
    <i name="e_0_energy">     -1.88664581 </i>
   </energy>
  </scstep>
  <scstep>
   <time name="dav">    0.09    0.10</time>
   <time name="total">    0.22    0.22</time>
   <energy>
    <i name="e_fr_energy">     -1.88470994 </i>
    <i name="e_wo_entrp">     -1.88470994 </i>
    <i name="e_0_energy">     -1.88470994 </i>
   </energy>
  </scstep>
  <scstep>
   <time name="dav">    0.06    0.06</time>
   <time name="total">    0.18    0.19</time>
   <energy>
    <i name="e_fr_energy">     -1.88952619 </i>
    <i name="e_wo_entrp">     -1.88952619 </i>
    <i name="e_0_energy">     -1.88952619 </i>
   </energy>
  </scstep>
  <scstep>
   <time name="dav">    0.11    0.11</time>
   <time name="total">    0.23    0.24</time>
   <energy>
    <i name="e_fr_energy">     -1.89044556 </i>
    <i name="e_wo_entrp">     -1.89044556 </i>
    <i name="e_0_energy">     -1.89044556 </i>
   </energy>
  </scstep>
  <scstep>
   <time name="dav">    0.08    0.08</time>
   <time name="total">    0.20    0.20</time>
   <energy>
    <i name="e_fr_energy">     -1.89069852 </i>
    <i name="e_wo_entrp">     -1.89069852 </i>
    <i name="e_0_energy">     -1.89069852 </i>
   </energy>
  </scstep>
  <scstep>
   <time name="dav">    0.09    0.09</time>
   <time name="total">    0.22    0.22</time>
   <energy>
    <i name="e_fr_energy">     -1.89099267 </i>
    <i name="e_wo_entrp">     -1.89099267 </i>
    <i name="e_0_energy">     -1.89099267 </i>
   </energy>
  </scstep>
  <scstep>
   <time name="dav">    0.09    0.09</time>
   <time name="total">    0.18    0.19</time>
   <energy>
    <i name="alphaZ">      0.33079207 </i>
    <i name="ewald">    -97.75476090 </i>
    <i name="hartreedc">   -277.91186468 </i>
    <i name="XCdc">     26.99963283 </i>
    <i name="pawpsdc">    251.25432337 </i>
    <i name="pawaedc">   -253.08173631 </i>
    <i name="eentropy">     -0.00000000 </i>
    <i name="bandstr">    -83.99062674 </i>
    <i name="atom">    432.26319604 </i>
    <i name="e_fr_energy">     -1.89104433 </i>
    <i name="e_wo_entrp">     -1.89104433 </i>
    <i name="e_0_energy">     -1.89104433 </i>
   </energy>
  </scstep>
  <structure>
   <crystal>
    <varray name="basis" >
     <v>       7.00000000       0.00000000       0.00000000 </v>
     <v>       0.00000000       7.50000000       0.00000000 </v>
     <v>       0.00000000       0.00000000       8.00000000 </v>
    </varray>
    <i name="volume">    420.00000000 </i>
    <varray name="rec_basis" >
     <v>       0.14285714       0.00000000       0.00000000 </v>
     <v>       0.00000000       0.13333333       0.00000000 </v>
     <v>       0.00000000       0.00000000       0.12500000 </v>
    </varray>
   </crystal>
   <varray name="positions" >
    <v>       0.00000000       0.00000000       0.00000000 </v>
   </varray>
  </structure>
  <varray name="forces" >
   <v>       0.00000000       0.00000000       0.00000000 </v>
  </varray>
  <varray name="stress" >
   <v>      -2.78224673      -0.00000000       0.00000000 </v>
   <v>       0.00000000      -2.84199059       0.00000000 </v>
   <v>       0.00000000       0.00000000      -3.76522536 </v>
  </varray>
  <energy>
   <i name="e_fr_energy">     -1.89104433 </i>
   <i name="e_wo_entrp">     -1.89104433 </i>
   <i name="e_0_energy">     -0.00000000 </i>
  </energy>
  <time name="totalsc">    6.44    6.58</time>
  <eigenvalues>
   <array>
    <dimension dim="1">band</dimension>
    <dimension dim="2">kpoint</dimension>
    <dimension dim="3">spin</dimension>
    <field>eigene</field>
    <field>occ</field>
    <set>
     <set comment="spin 1">
      <set comment="kpoint 1">
       <r>  -25.0681    1.0000 </r>
       <r>  -10.7439    1.0000 </r>
       <r>  -10.7432    1.0000 </r>
       <r>   -8.6435    1.0000 </r>
       <r>   -0.5774    0.0000 </r>
       <r>    1.8057    0.0000 </r>
       <r>    1.9960    0.0000 </r>
       <r>    2.0157    0.0000 </r>
       <r>    2.2386    0.0000 </r>
       <r>    2.3865    0.0000 </r>
       <r>    2.6205    0.0000 </r>
       <r>    4.5383    0.0000 </r>
       <r>    4.5847    0.0000 </r>
       <r>    4.7559    0.0000 </r>
       <r>    4.9233    0.0000 </r>
       <r>    4.9931    0.0000 </r>
      </set>
     </set>
     <set comment="spin 2">
      <set comment="kpoint 1">
       <r>  -21.4029    1.0000 </r>
       <r>   -7.3890    1.0000 </r>
       <r>   -6.2820    0.0000 </r>
       <r>   -6.2806    0.0000 </r>
       <r>   -0.3364    0.0000 </r>
       <r>    1.9149    0.0000 </r>
       <r>    2.1690    0.0000 </r>
       <r>    2.3888    0.0000 </r>
       <r>    2.4445    0.0000 </r>
       <r>    2.7662    0.0000 </r>
       <r>    2.8187    0.0000 </r>
       <r>    4.3342    0.0000 </r>
       <r>    4.6377    0.0000 </r>
       <r>    4.6698    0.0000 </r>
       <r>    4.8969    0.0000 </r>
       <r>    4.9238    0.0000 </r>
      </set>
     </set>
    </set>
   </array>
  </eigenvalues>
  <separator name="orbital magnetization" >
   <v name="MAGDIPOLOUT">      0.00000000      0.00000000      0.00000000</v>
  </separator>
  <dos>
   <i name="efermi">     -7.33701468 </i>
   <total>
    <array>
     <dimension dim="1">gridpoints</dimension>
     <dimension dim="2">spin</dimension>
     <field>energy</field>
     <field>total</field>
     <field>integrated</field>
     <set>
      <set comment="spin 1">
       <r>   -26.5711     0.0000     0.0000 </r>
       <r>   -26.4609     0.0000     0.0000 </r>
       <r>   -26.3507     0.0000     0.0000 </r>
       <r>   -26.2404     0.0000     0.0000 </r>
       <r>   -26.1302     0.0000     0.0000 </r>
       <r>   -26.0200     0.0000     0.0000 </r>
       <r>   -25.9098     0.0000     0.0000 </r>
       <r>   -25.7995     0.0000     0.0000 </r>
       <r>   -25.6893     0.0000     0.0000 </r>
       <r>   -25.5791     0.0000     0.0000 </r>
       <r>   -25.4689     0.0000     0.0000 </r>
       <r>   -25.3587     0.0000     0.0000 </r>
       <r>   -25.2484     0.0000     0.0000 </r>
       <r>   -25.1382     0.0000     0.0000 </r>
       <r>   -25.0280     9.0724     1.0000 </r>
       <r>   -24.9178     0.0000     1.0000 </r>
       <r>   -24.8075     0.0000     1.0000 </r>
       <r>   -24.6973     0.0000     1.0000 </r>
       <r>   -24.5871     0.0000     1.0000 </r>
       <r>   -24.4769     0.0000     1.0000 </r>
       <r>   -24.3666     0.0000     1.0000 </r>
       <r>   -24.2564     0.0000     1.0000 </r>
       <r>   -24.1462     0.0000     1.0000 </r>
       <r>   -24.0360     0.0000     1.0000 </r>
       <r>   -23.9257     0.0000     1.0000 </r>
       <r>   -23.8155     0.0000     1.0000 </r>
       <r>   -23.7053     0.0000     1.0000 </r>
       <r>   -23.5951     0.0000     1.0000 </r>
       <r>   -23.4848     0.0000     1.0000 </r>
       <r>   -23.3746     0.0000     1.0000 </r>
       <r>   -23.2644     0.0000     1.0000 </r>
       <r>   -23.1542     0.0000     1.0000 </r>
       <r>   -23.0439     0.0000     1.0000 </r>
       <r>   -22.9337     0.0000     1.0000 </r>
       <r>   -22.8235     0.0000     1.0000 </r>
       <r>   -22.7133     0.0000     1.0000 </r>
       <r>   -22.6031     0.0000     1.0000 </r>
       <r>   -22.4928     0.0000     1.0000 </r>
       <r>   -22.3826     0.0000     1.0000 </r>
       <r>   -22.2724     0.0000     1.0000 </r>
       <r>   -22.1622     0.0000     1.0000 </r>
       <r>   -22.0519     0.0000     1.0000 </r>
       <r>   -21.9417     0.0000     1.0000 </r>
       <r>   -21.8315     0.0000     1.0000 </r>
       <r>   -21.7213     0.0000     1.0000 </r>
       <r>   -21.6110     0.0000     1.0000 </r>
       <r>   -21.5008     0.0000     1.0000 </r>
       <r>   -21.3906     0.0000     1.0000 </r>
       <r>   -21.2804     0.0000     1.0000 </r>
       <r>   -21.1701     0.0000     1.0000 </r>
       <r>   -21.0599     0.0000     1.0000 </r>
       <r>   -20.9497     0.0000     1.0000 </r>
       <r>   -20.8395     0.0000     1.0000 </r>
       <r>   -20.7292     0.0000     1.0000 </r>
       <r>   -20.6190     0.0000     1.0000 </r>
       <r>   -20.5088     0.0000     1.0000 </r>
       <r>   -20.3986     0.0000     1.0000 </r>
       <r>   -20.2883     0.0000     1.0000 </r>
       <r>   -20.1781     0.0000     1.0000 </r>
       <r>   -20.0679     0.0000     1.0000 </r>
       <r>   -19.9577     0.0000     1.0000 </r>
       <r>   -19.8474     0.0000     1.0000 </r>
       <r>   -19.7372     0.0000     1.0000 </r>
       <r>   -19.6270     0.0000     1.0000 </r>
       <r>   -19.5168     0.0000     1.0000 </r>
       <r>   -19.4066     0.0000     1.0000 </r>
       <r>   -19.2963     0.0000     1.0000 </r>
       <r>   -19.1861     0.0000     1.0000 </r>
       <r>   -19.0759     0.0000     1.0000 </r>
       <r>   -18.9657     0.0000     1.0000 </r>
       <r>   -18.8554     0.0000     1.0000 </r>
       <r>   -18.7452     0.0000     1.0000 </r>
       <r>   -18.6350     0.0000     1.0000 </r>
       <r>   -18.5248     0.0000     1.0000 </r>
       <r>   -18.4145     0.0000     1.0000 </r>
       <r>   -18.3043     0.0000     1.0000 </r>
       <r>   -18.1941     0.0000     1.0000 </r>
       <r>   -18.0839     0.0000     1.0000 </r>
       <r>   -17.9736     0.0000     1.0000 </r>
       <r>   -17.8634     0.0000     1.0000 </r>
       <r>   -17.7532     0.0000     1.0000 </r>
       <r>   -17.6430     0.0000     1.0000 </r>
       <r>   -17.5327     0.0000     1.0000 </r>
       <r>   -17.4225     0.0000     1.0000 </r>
       <r>   -17.3123     0.0000     1.0000 </r>
       <r>   -17.2021     0.0000     1.0000 </r>
       <r>   -17.0918     0.0000     1.0000 </r>
       <r>   -16.9816     0.0000     1.0000 </r>
       <r>   -16.8714     0.0000     1.0000 </r>
       <r>   -16.7612     0.0000     1.0000 </r>
       <r>   -16.6509     0.0000     1.0000 </r>
       <r>   -16.5407     0.0000     1.0000 </r>
       <r>   -16.4305     0.0000     1.0000 </r>
       <r>   -16.3203     0.0000     1.0000 </r>
       <r>   -16.2101     0.0000     1.0000 </r>
       <r>   -16.0998     0.0000     1.0000 </r>
       <r>   -15.9896     0.0000     1.0000 </r>
       <r>   -15.8794     0.0000     1.0000 </r>
       <r>   -15.7692     0.0000     1.0000 </r>
       <r>   -15.6589     0.0000     1.0000 </r>
       <r>   -15.5487     0.0000     1.0000 </r>
       <r>   -15.4385     0.0000     1.0000 </r>
       <r>   -15.3283     0.0000     1.0000 </r>
       <r>   -15.2180     0.0000     1.0000 </r>
       <r>   -15.1078     0.0000     1.0000 </r>
       <r>   -14.9976     0.0000     1.0000 </r>
       <r>   -14.8874     0.0000     1.0000 </r>
       <r>   -14.7771     0.0000     1.0000 </r>
       <r>   -14.6669     0.0000     1.0000 </r>
       <r>   -14.5567     0.0000     1.0000 </r>
       <r>   -14.4465     0.0000     1.0000 </r>
       <r>   -14.3362     0.0000     1.0000 </r>
       <r>   -14.2260     0.0000     1.0000 </r>
       <r>   -14.1158     0.0000     1.0000 </r>
       <r>   -14.0056     0.0000     1.0000 </r>
       <r>   -13.8953     0.0000     1.0000 </r>
       <r>   -13.7851     0.0000     1.0000 </r>
       <r>   -13.6749     0.0000     1.0000 </r>
       <r>   -13.5647     0.0000     1.0000 </r>
       <r>   -13.4545     0.0000     1.0000 </r>
       <r>   -13.3442     0.0000     1.0000 </r>
       <r>   -13.2340     0.0000     1.0000 </r>
       <r>   -13.1238     0.0000     1.0000 </r>
       <r>   -13.0136     0.0000     1.0000 </r>
       <r>   -12.9033     0.0000     1.0000 </r>
       <r>   -12.7931     0.0000     1.0000 </r>
       <r>   -12.6829     0.0000     1.0000 </r>
       <r>   -12.5727     0.0000     1.0000 </r>
       <r>   -12.4624     0.0000     1.0000 </r>
       <r>   -12.3522     0.0000     1.0000 </r>
       <r>   -12.2420     0.0000     1.0000 </r>
       <r>   -12.1318     0.0000     1.0000 </r>
       <r>   -12.0215     0.0000     1.0000 </r>
       <r>   -11.9113     0.0000     1.0000 </r>
       <r>   -11.8011     0.0000     1.0000 </r>
       <r>   -11.6909     0.0000     1.0000 </r>
       <r>   -11.5806     0.0000     1.0000 </r>
       <r>   -11.4704     0.0000     1.0000 </r>
       <r>   -11.3602     0.0000     1.0000 </r>
       <r>   -11.2500     0.0000     1.0000 </r>
       <r>   -11.1397     0.0000     1.0000 </r>
       <r>   -11.0295     0.0000     1.0000 </r>
       <r>   -10.9193     0.0000     1.0000 </r>
       <r>   -10.8091     0.0000     1.0000 </r>
       <r>   -10.6988    18.1449     3.0000 </r>
       <r>   -10.5886     0.0000     3.0000 </r>
       <r>   -10.4784     0.0000     3.0000 </r>
       <r>   -10.3682     0.0000     3.0000 </r>
       <r>   -10.2580     0.0000     3.0000 </r>
       <r>   -10.1477     0.0000     3.0000 </r>
       <r>   -10.0375     0.0000     3.0000 </r>
       <r>    -9.9273     0.0000     3.0000 </r>
       <r>    -9.8171     0.0000     3.0000 </r>
       <r>    -9.7068     0.0000     3.0000 </r>
       <r>    -9.5966     0.0000     3.0000 </r>
       <r>    -9.4864     0.0000     3.0000 </r>
       <r>    -9.3762     0.0000     3.0000 </r>
       <r>    -9.2659     0.0000     3.0000 </r>
       <r>    -9.1557     0.0000     3.0000 </r>
       <r>    -9.0455     0.0000     3.0000 </r>
       <r>    -8.9353     0.0000     3.0000 </r>
       <r>    -8.8250     0.0000     3.0000 </r>
       <r>    -8.7148     0.0000     3.0000 </r>
       <r>    -8.6046     9.0724     4.0000 </r>
       <r>    -8.4944     0.0000     4.0000 </r>
       <r>    -8.3841     0.0000     4.0000 </r>
       <r>    -8.2739     0.0000     4.0000 </r>
       <r>    -8.1637     0.0000     4.0000 </r>
       <r>    -8.0535     0.0000     4.0000 </r>
       <r>    -7.9432     0.0000     4.0000 </r>
       <r>    -7.8330     0.0000     4.0000 </r>
       <r>    -7.7228     0.0000     4.0000 </r>
       <r>    -7.6126     0.0000     4.0000 </r>
       <r>    -7.5024     0.0000     4.0000 </r>
       <r>    -7.3921     0.0000     4.0000 </r>
       <r>    -7.2819     0.0000     4.0000 </r>
       <r>    -7.1717     0.0000     4.0000 </r>
       <r>    -7.0615     0.0000     4.0000 </r>
       <r>    -6.9512     0.0000     4.0000 </r>
       <r>    -6.8410     0.0000     4.0000 </r>
       <r>    -6.7308     0.0000     4.0000 </r>
       <r>    -6.6206     0.0000     4.0000 </r>
       <r>    -6.5103     0.0000     4.0000 </r>
       <r>    -6.4001     0.0000     4.0000 </r>
       <r>    -6.2899     0.0000     4.0000 </r>
       <r>    -6.1797     0.0000     4.0000 </r>
       <r>    -6.0694     0.0000     4.0000 </r>
       <r>    -5.9592     0.0000     4.0000 </r>
       <r>    -5.8490     0.0000     4.0000 </r>
       <r>    -5.7388     0.0000     4.0000 </r>
       <r>    -5.6285     0.0000     4.0000 </r>
       <r>    -5.5183     0.0000     4.0000 </r>
       <r>    -5.4081     0.0000     4.0000 </r>
       <r>    -5.2979     0.0000     4.0000 </r>
       <r>    -5.1876     0.0000     4.0000 </r>
       <r>    -5.0774     0.0000     4.0000 </r>
       <r>    -4.9672     0.0000     4.0000 </r>
       <r>    -4.8570     0.0000     4.0000 </r>
       <r>    -4.7467     0.0000     4.0000 </r>
       <r>    -4.6365     0.0000     4.0000 </r>
       <r>    -4.5263     0.0000     4.0000 </r>
       <r>    -4.4161     0.0000     4.0000 </r>
       <r>    -4.3059     0.0000     4.0000 </r>
       <r>    -4.1956     0.0000     4.0000 </r>
       <r>    -4.0854     0.0000     4.0000 </r>
       <r>    -3.9752     0.0000     4.0000 </r>
       <r>    -3.8650     0.0000     4.0000 </r>
       <r>    -3.7547     0.0000     4.0000 </r>
       <r>    -3.6445     0.0000     4.0000 </r>
       <r>    -3.5343     0.0000     4.0000 </r>
       <r>    -3.4241     0.0000     4.0000 </r>
       <r>    -3.3138     0.0000     4.0000 </r>
       <r>    -3.2036     0.0000     4.0000 </r>
       <r>    -3.0934     0.0000     4.0000 </r>
       <r>    -2.9832     0.0000     4.0000 </r>
       <r>    -2.8729     0.0000     4.0000 </r>
       <r>    -2.7627     0.0000     4.0000 </r>
       <r>    -2.6525     0.0000     4.0000 </r>
       <r>    -2.5423     0.0000     4.0000 </r>
       <r>    -2.4320     0.0000     4.0000 </r>
       <r>    -2.3218     0.0000     4.0000 </r>
       <r>    -2.2116     0.0000     4.0000 </r>
       <r>    -2.1014     0.0000     4.0000 </r>
       <r>    -1.9911     0.0000     4.0000 </r>
       <r>    -1.8809     0.0000     4.0000 </r>
       <r>    -1.7707     0.0000     4.0000 </r>
       <r>    -1.6605     0.0000     4.0000 </r>
       <r>    -1.5503     0.0000     4.0000 </r>
       <r>    -1.4400     0.0000     4.0000 </r>
       <r>    -1.3298     0.0000     4.0000 </r>
       <r>    -1.2196     0.0000     4.0000 </r>
       <r>    -1.1094     0.0000     4.0000 </r>
       <r>    -0.9991     0.0000     4.0000 </r>
       <r>    -0.8889     0.0000     4.0000 </r>
       <r>    -0.7787     0.0000     4.0000 </r>
       <r>    -0.6685     0.0000     4.0000 </r>
       <r>    -0.5582     9.0422     4.9967 </r>
       <r>    -0.4480     0.0000     5.0000 </r>
       <r>    -0.3378     0.0000     5.0000 </r>
       <r>    -0.2276     0.0000     5.0000 </r>
       <r>    -0.1173     0.0000     5.0000 </r>
       <r>    -0.0071     0.0000     5.0000 </r>
       <r>     0.1031     0.0000     5.0000 </r>
       <r>     0.2133     0.0000     5.0000 </r>
       <r>     0.3236     0.0000     5.0000 </r>
       <r>     0.4338     0.0000     5.0000 </r>
       <r>     0.5440     0.0000     5.0000 </r>
       <r>     0.6542     0.0000     5.0000 </r>
       <r>     0.7645     0.0000     5.0000 </r>
       <r>     0.8747     0.0000     5.0000 </r>
       <r>     0.9849     0.0000     5.0000 </r>
       <r>     1.0951     0.0000     5.0000 </r>
       <r>     1.2054     0.0000     5.0000 </r>
       <r>     1.3156     0.0000     5.0000 </r>
       <r>     1.4258     0.0000     5.0000 </r>
       <r>     1.5360     0.0000     5.0000 </r>
       <r>     1.6462     0.0000     5.0000 </r>
       <r>     1.7565     0.0000     5.0000 </r>
       <r>     1.8667     9.0724     6.0000 </r>
       <r>     1.9769     0.0316     6.0035 </r>
       <r>     2.0871     9.0724     8.0000 </r>
       <r>     2.1974     0.0000     8.0000 </r>
       <r>     2.3076     9.0724     9.0000 </r>
       <r>     2.4178     9.0724    10.0000 </r>
       <r>     2.5280     0.0000    10.0000 </r>
       <r>     2.6383     9.0179    10.9940 </r>
       <r>     2.7485     0.0000    11.0000 </r>
       <r>     2.8587     0.0000    11.0000 </r>
       <r>     2.9689     0.0000    11.0000 </r>
       <r>     3.0792     0.0000    11.0000 </r>
       <r>     3.1894     0.0000    11.0000 </r>
       <r>     3.2996     0.0000    11.0000 </r>
       <r>     3.4098     0.0000    11.0000 </r>
       <r>     3.5201     0.0000    11.0000 </r>
       <r>     3.6303     0.0000    11.0000 </r>
       <r>     3.7405     0.0000    11.0000 </r>
       <r>     3.8507     0.0000    11.0000 </r>
       <r>     3.9610     0.0000    11.0000 </r>
       <r>     4.0712     0.0000    11.0000 </r>
       <r>     4.1814     0.0000    11.0000 </r>
       <r>     4.2916     0.0000    11.0000 </r>
       <r>     4.4019     0.0000    11.0000 </r>
       <r>     4.5121     0.0009    11.0001 </r>
       <r>     4.6223     9.0724    13.0000 </r>
       <r>     4.7325     0.0043    13.0005 </r>
       <r>     4.8427     0.0000    14.0000 </r>
       <r>     4.9530     9.0723    15.0000 </r>
       <r>     5.0632     9.0724    16.0000 </r>
       <r>     5.1734     0.0000    16.0000 </r>
       <r>     5.2836     0.0000    16.0000 </r>
       <r>     5.3939     0.0000    16.0000 </r>
       <r>     5.5041     0.0000    16.0000 </r>
       <r>     5.6143     0.0000    16.0000 </r>
       <r>     5.7245     0.0000    16.0000 </r>
       <r>     5.8348     0.0000    16.0000 </r>
       <r>     5.9450     0.0000    16.0000 </r>
       <r>     6.0552     0.0000    16.0000 </r>
       <r>     6.1654     0.0000    16.0000 </r>
       <r>     6.2757     0.0000    16.0000 </r>
       <r>     6.3859     0.0000    16.0000 </r>
       <r>     6.4961     0.0000    16.0000 </r>
      </set>
      <set comment="spin 2">
       <r>   -26.5711     0.0000     0.0000 </r>
       <r>   -26.4609     0.0000     0.0000 </r>
       <r>   -26.3507     0.0000     0.0000 </r>
       <r>   -26.2404     0.0000     0.0000 </r>
       <r>   -26.1302     0.0000     0.0000 </r>
       <r>   -26.0200     0.0000     0.0000 </r>
       <r>   -25.9098     0.0000     0.0000 </r>
       <r>   -25.7995     0.0000     0.0000 </r>
       <r>   -25.6893     0.0000     0.0000 </r>
       <r>   -25.5791     0.0000     0.0000 </r>
       <r>   -25.4689     0.0000     0.0000 </r>
       <r>   -25.3587     0.0000     0.0000 </r>
       <r>   -25.2484     0.0000     0.0000 </r>
       <r>   -25.1382     0.0000     0.0000 </r>
       <r>   -25.0280     0.0000     0.0000 </r>
       <r>   -24.9178     0.0000     0.0000 </r>
       <r>   -24.8075     0.0000     0.0000 </r>
       <r>   -24.6973     0.0000     0.0000 </r>
       <r>   -24.5871     0.0000     0.0000 </r>
       <r>   -24.4769     0.0000     0.0000 </r>
       <r>   -24.3666     0.0000     0.0000 </r>
       <r>   -24.2564     0.0000     0.0000 </r>
       <r>   -24.1462     0.0000     0.0000 </r>
       <r>   -24.0360     0.0000     0.0000 </r>
       <r>   -23.9257     0.0000     0.0000 </r>
       <r>   -23.8155     0.0000     0.0000 </r>
       <r>   -23.7053     0.0000     0.0000 </r>
       <r>   -23.5951     0.0000     0.0000 </r>
       <r>   -23.4848     0.0000     0.0000 </r>
       <r>   -23.3746     0.0000     0.0000 </r>
       <r>   -23.2644     0.0000     0.0000 </r>
       <r>   -23.1542     0.0000     0.0000 </r>
       <r>   -23.0439     0.0000     0.0000 </r>
       <r>   -22.9337     0.0000     0.0000 </r>
       <r>   -22.8235     0.0000     0.0000 </r>
       <r>   -22.7133     0.0000     0.0000 </r>
       <r>   -22.6031     0.0000     0.0000 </r>
       <r>   -22.4928     0.0000     0.0000 </r>
       <r>   -22.3826     0.0000     0.0000 </r>
       <r>   -22.2724     0.0000     0.0000 </r>
       <r>   -22.1622     0.0000     0.0000 </r>
       <r>   -22.0519     0.0000     0.0000 </r>
       <r>   -21.9417     0.0000     0.0000 </r>
       <r>   -21.8315     0.0000     0.0000 </r>
       <r>   -21.7213     0.0000     0.0000 </r>
       <r>   -21.6110     0.0000     0.0000 </r>
       <r>   -21.5008     0.0000     0.0000 </r>
       <r>   -21.3906     8.7074     0.9598 </r>
       <r>   -21.2804     0.0000     1.0000 </r>
       <r>   -21.1701     0.0000     1.0000 </r>
       <r>   -21.0599     0.0000     1.0000 </r>
       <r>   -20.9497     0.0000     1.0000 </r>
       <r>   -20.8395     0.0000     1.0000 </r>
       <r>   -20.7292     0.0000     1.0000 </r>
       <r>   -20.6190     0.0000     1.0000 </r>
       <r>   -20.5088     0.0000     1.0000 </r>
       <r>   -20.3986     0.0000     1.0000 </r>
       <r>   -20.2883     0.0000     1.0000 </r>
       <r>   -20.1781     0.0000     1.0000 </r>
       <r>   -20.0679     0.0000     1.0000 </r>
       <r>   -19.9577     0.0000     1.0000 </r>
       <r>   -19.8474     0.0000     1.0000 </r>
       <r>   -19.7372     0.0000     1.0000 </r>
       <r>   -19.6270     0.0000     1.0000 </r>
       <r>   -19.5168     0.0000     1.0000 </r>
       <r>   -19.4066     0.0000     1.0000 </r>
       <r>   -19.2963     0.0000     1.0000 </r>
       <r>   -19.1861     0.0000     1.0000 </r>
       <r>   -19.0759     0.0000     1.0000 </r>
       <r>   -18.9657     0.0000     1.0000 </r>
       <r>   -18.8554     0.0000     1.0000 </r>
       <r>   -18.7452     0.0000     1.0000 </r>
       <r>   -18.6350     0.0000     1.0000 </r>
       <r>   -18.5248     0.0000     1.0000 </r>
       <r>   -18.4145     0.0000     1.0000 </r>
       <r>   -18.3043     0.0000     1.0000 </r>
       <r>   -18.1941     0.0000     1.0000 </r>
       <r>   -18.0839     0.0000     1.0000 </r>
       <r>   -17.9736     0.0000     1.0000 </r>
       <r>   -17.8634     0.0000     1.0000 </r>
       <r>   -17.7532     0.0000     1.0000 </r>
       <r>   -17.6430     0.0000     1.0000 </r>
       <r>   -17.5327     0.0000     1.0000 </r>
       <r>   -17.4225     0.0000     1.0000 </r>
       <r>   -17.3123     0.0000     1.0000 </r>
       <r>   -17.2021     0.0000     1.0000 </r>
       <r>   -17.0918     0.0000     1.0000 </r>
       <r>   -16.9816     0.0000     1.0000 </r>
       <r>   -16.8714     0.0000     1.0000 </r>
       <r>   -16.7612     0.0000     1.0000 </r>
       <r>   -16.6509     0.0000     1.0000 </r>
       <r>   -16.5407     0.0000     1.0000 </r>
       <r>   -16.4305     0.0000     1.0000 </r>
       <r>   -16.3203     0.0000     1.0000 </r>
       <r>   -16.2101     0.0000     1.0000 </r>
       <r>   -16.0998     0.0000     1.0000 </r>
       <r>   -15.9896     0.0000     1.0000 </r>
       <r>   -15.8794     0.0000     1.0000 </r>
       <r>   -15.7692     0.0000     1.0000 </r>
       <r>   -15.6589     0.0000     1.0000 </r>
       <r>   -15.5487     0.0000     1.0000 </r>
       <r>   -15.4385     0.0000     1.0000 </r>
       <r>   -15.3283     0.0000     1.0000 </r>
       <r>   -15.2180     0.0000     1.0000 </r>
       <r>   -15.1078     0.0000     1.0000 </r>
       <r>   -14.9976     0.0000     1.0000 </r>
       <r>   -14.8874     0.0000     1.0000 </r>
       <r>   -14.7771     0.0000     1.0000 </r>
       <r>   -14.6669     0.0000     1.0000 </r>
       <r>   -14.5567     0.0000     1.0000 </r>
       <r>   -14.4465     0.0000     1.0000 </r>
       <r>   -14.3362     0.0000     1.0000 </r>
       <r>   -14.2260     0.0000     1.0000 </r>
       <r>   -14.1158     0.0000     1.0000 </r>
       <r>   -14.0056     0.0000     1.0000 </r>
       <r>   -13.8953     0.0000     1.0000 </r>
       <r>   -13.7851     0.0000     1.0000 </r>
       <r>   -13.6749     0.0000     1.0000 </r>
       <r>   -13.5647     0.0000     1.0000 </r>
       <r>   -13.4545     0.0000     1.0000 </r>
       <r>   -13.3442     0.0000     1.0000 </r>
       <r>   -13.2340     0.0000     1.0000 </r>
       <r>   -13.1238     0.0000     1.0000 </r>
       <r>   -13.0136     0.0000     1.0000 </r>
       <r>   -12.9033     0.0000     1.0000 </r>
       <r>   -12.7931     0.0000     1.0000 </r>
       <r>   -12.6829     0.0000     1.0000 </r>
       <r>   -12.5727     0.0000     1.0000 </r>
       <r>   -12.4624     0.0000     1.0000 </r>
       <r>   -12.3522     0.0000     1.0000 </r>
       <r>   -12.2420     0.0000     1.0000 </r>
       <r>   -12.1318     0.0000     1.0000 </r>
       <r>   -12.0215     0.0000     1.0000 </r>
       <r>   -11.9113     0.0000     1.0000 </r>
       <r>   -11.8011     0.0000     1.0000 </r>
       <r>   -11.6909     0.0000     1.0000 </r>
       <r>   -11.5806     0.0000     1.0000 </r>
       <r>   -11.4704     0.0000     1.0000 </r>
       <r>   -11.3602     0.0000     1.0000 </r>
       <r>   -11.2500     0.0000     1.0000 </r>
       <r>   -11.1397     0.0000     1.0000 </r>
       <r>   -11.0295     0.0000     1.0000 </r>
       <r>   -10.9193     0.0000     1.0000 </r>
       <r>   -10.8091     0.0000     1.0000 </r>
       <r>   -10.6988     0.0000     1.0000 </r>
       <r>   -10.5886     0.0000     1.0000 </r>
       <r>   -10.4784     0.0000     1.0000 </r>
       <r>   -10.3682     0.0000     1.0000 </r>
       <r>   -10.2580     0.0000     1.0000 </r>
       <r>   -10.1477     0.0000     1.0000 </r>
       <r>   -10.0375     0.0000     1.0000 </r>
       <r>    -9.9273     0.0000     1.0000 </r>
       <r>    -9.8171     0.0000     1.0000 </r>
       <r>    -9.7068     0.0000     1.0000 </r>
       <r>    -9.5966     0.0000     1.0000 </r>
       <r>    -9.4864     0.0000     1.0000 </r>
       <r>    -9.3762     0.0000     1.0000 </r>
       <r>    -9.2659     0.0000     1.0000 </r>
       <r>    -9.1557     0.0000     1.0000 </r>
       <r>    -9.0455     0.0000     1.0000 </r>
       <r>    -8.9353     0.0000     1.0000 </r>
       <r>    -8.8250     0.0000     1.0000 </r>
       <r>    -8.7148     0.0000     1.0000 </r>
       <r>    -8.6046     0.0000     1.0000 </r>
       <r>    -8.4944     0.0000     1.0000 </r>
       <r>    -8.3841     0.0000     1.0000 </r>
       <r>    -8.2739     0.0000     1.0000 </r>
       <r>    -8.1637     0.0000     1.0000 </r>
       <r>    -8.0535     0.0000     1.0000 </r>
       <r>    -7.9432     0.0000     1.0000 </r>
       <r>    -7.8330     0.0000     1.0000 </r>
       <r>    -7.7228     0.0000     1.0000 </r>
       <r>    -7.6126     0.0000     1.0000 </r>
       <r>    -7.5024     0.0000     1.0000 </r>
       <r>    -7.3921     2.9857     1.3291 </r>
       <r>    -7.2819     0.0000     2.0000 </r>
       <r>    -7.1717     0.0000     2.0000 </r>
       <r>    -7.0615     0.0000     2.0000 </r>
       <r>    -6.9512     0.0000     2.0000 </r>
       <r>    -6.8410     0.0000     2.0000 </r>
       <r>    -6.7308     0.0000     2.0000 </r>
       <r>    -6.6206     0.0000     2.0000 </r>
       <r>    -6.5103     0.0000     2.0000 </r>
       <r>    -6.4001     0.0000     2.0000 </r>
       <r>    -6.2899     2.0601     2.2271 </r>
       <r>    -6.1797     0.0000     4.0000 </r>
       <r>    -6.0694     0.0000     4.0000 </r>
       <r>    -5.9592     0.0000     4.0000 </r>
       <r>    -5.8490     0.0000     4.0000 </r>
       <r>    -5.7388     0.0000     4.0000 </r>
       <r>    -5.6285     0.0000     4.0000 </r>
       <r>    -5.5183     0.0000     4.0000 </r>
       <r>    -5.4081     0.0000     4.0000 </r>
       <r>    -5.2979     0.0000     4.0000 </r>
       <r>    -5.1876     0.0000     4.0000 </r>
       <r>    -5.0774     0.0000     4.0000 </r>
       <r>    -4.9672     0.0000     4.0000 </r>
       <r>    -4.8570     0.0000     4.0000 </r>
       <r>    -4.7467     0.0000     4.0000 </r>
       <r>    -4.6365     0.0000     4.0000 </r>
       <r>    -4.5263     0.0000     4.0000 </r>
       <r>    -4.4161     0.0000     4.0000 </r>
       <r>    -4.3059     0.0000     4.0000 </r>
       <r>    -4.1956     0.0000     4.0000 </r>
       <r>    -4.0854     0.0000     4.0000 </r>
       <r>    -3.9752     0.0000     4.0000 </r>
       <r>    -3.8650     0.0000     4.0000 </r>
       <r>    -3.7547     0.0000     4.0000 </r>
       <r>    -3.6445     0.0000     4.0000 </r>
       <r>    -3.5343     0.0000     4.0000 </r>
       <r>    -3.4241     0.0000     4.0000 </r>
       <r>    -3.3138     0.0000     4.0000 </r>
       <r>    -3.2036     0.0000     4.0000 </r>
       <r>    -3.0934     0.0000     4.0000 </r>
       <r>    -2.9832     0.0000     4.0000 </r>
       <r>    -2.8729     0.0000     4.0000 </r>
       <r>    -2.7627     0.0000     4.0000 </r>
       <r>    -2.6525     0.0000     4.0000 </r>
       <r>    -2.5423     0.0000     4.0000 </r>
       <r>    -2.4320     0.0000     4.0000 </r>
       <r>    -2.3218     0.0000     4.0000 </r>
       <r>    -2.2116     0.0000     4.0000 </r>
       <r>    -2.1014     0.0000     4.0000 </r>
       <r>    -1.9911     0.0000     4.0000 </r>
       <r>    -1.8809     0.0000     4.0000 </r>
       <r>    -1.7707     0.0000     4.0000 </r>
       <r>    -1.6605     0.0000     4.0000 </r>
       <r>    -1.5503     0.0000     4.0000 </r>
       <r>    -1.4400     0.0000     4.0000 </r>
       <r>    -1.3298     0.0000     4.0000 </r>
       <r>    -1.2196     0.0000     4.0000 </r>
       <r>    -1.1094     0.0000     4.0000 </r>
       <r>    -0.9991     0.0000     4.0000 </r>
       <r>    -0.8889     0.0000     4.0000 </r>
       <r>    -0.7787     0.0000     4.0000 </r>
       <r>    -0.6685     0.0000     4.0000 </r>
       <r>    -0.5582     0.0000     4.0000 </r>
       <r>    -0.4480     0.0000     4.0000 </r>
       <r>    -0.3378     3.8568     4.4251 </r>
       <r>    -0.2276     0.0000     5.0000 </r>
       <r>    -0.1173     0.0000     5.0000 </r>
       <r>    -0.0071     0.0000     5.0000 </r>
       <r>     0.1031     0.0000     5.0000 </r>
       <r>     0.2133     0.0000     5.0000 </r>
       <r>     0.3236     0.0000     5.0000 </r>
       <r>     0.4338     0.0000     5.0000 </r>
       <r>     0.5440     0.0000     5.0000 </r>
       <r>     0.6542     0.0000     5.0000 </r>
       <r>     0.7645     0.0000     5.0000 </r>
       <r>     0.8747     0.0000     5.0000 </r>
       <r>     0.9849     0.0000     5.0000 </r>
       <r>     1.0951     0.0000     5.0000 </r>
       <r>     1.2054     0.0000     5.0000 </r>
       <r>     1.3156     0.0000     5.0000 </r>
       <r>     1.4258     0.0000     5.0000 </r>
       <r>     1.5360     0.0000     5.0000 </r>
       <r>     1.6462     0.0000     5.0000 </r>
       <r>     1.7565     0.0000     5.0000 </r>
       <r>     1.8667     0.0000     5.0000 </r>
       <r>     1.9769     9.0724     6.0000 </r>
       <r>     2.0871     0.0000     6.0000 </r>
       <r>     2.1974     9.0721     7.0000 </r>
       <r>     2.3076     0.0000     7.0000 </r>
       <r>     2.4178     9.0730     8.0001 </r>
       <r>     2.5280     0.0000     9.0000 </r>
       <r>     2.6383     0.0000     9.0000 </r>
       <r>     2.7485     0.0567     9.0062 </r>
       <r>     2.8587     9.0724    11.0000 </r>
       <r>     2.9689     0.0000    11.0000 </r>
       <r>     3.0792     0.0000    11.0000 </r>
       <r>     3.1894     0.0000    11.0000 </r>
       <r>     3.2996     0.0000    11.0000 </r>
       <r>     3.4098     0.0000    11.0000 </r>
       <r>     3.5201     0.0000    11.0000 </r>
       <r>     3.6303     0.0000    11.0000 </r>
       <r>     3.7405     0.0000    11.0000 </r>
       <r>     3.8507     0.0000    11.0000 </r>
       <r>     3.9610     0.0000    11.0000 </r>
       <r>     4.0712     0.0000    11.0000 </r>
       <r>     4.1814     0.0000    11.0000 </r>
       <r>     4.2916     0.0000    11.0000 </r>
       <r>     4.4019     9.0724    12.0000 </r>
       <r>     4.5121     0.0000    12.0000 </r>
       <r>     4.6223     0.1317    12.0145 </r>
       <r>     4.7325     9.0724    14.0000 </r>
       <r>     4.8427     0.0000    14.0000 </r>
       <r>     4.9530    18.1447    16.0000 </r>
       <r>     5.0632     0.0000    16.0000 </r>
       <r>     5.1734     0.0000    16.0000 </r>
       <r>     5.2836     0.0000    16.0000 </r>
       <r>     5.3939     0.0000    16.0000 </r>
       <r>     5.5041     0.0000    16.0000 </r>
       <r>     5.6143     0.0000    16.0000 </r>
       <r>     5.7245     0.0000    16.0000 </r>
       <r>     5.8348     0.0000    16.0000 </r>
       <r>     5.9450     0.0000    16.0000 </r>
       <r>     6.0552     0.0000    16.0000 </r>
       <r>     6.1654     0.0000    16.0000 </r>
       <r>     6.2757     0.0000    16.0000 </r>
       <r>     6.3859     0.0000    16.0000 </r>
       <r>     6.4961     0.0000    16.0000 </r>
      </set>
     </set>
    </array>
   </total>
  </dos>
 </calculation>
 <structure name="finalpos" >
  <crystal>
   <varray name="basis" >
    <v>       7.00000000       0.00000000       0.00000000 </v>
    <v>       0.00000000       7.50000000       0.00000000 </v>
    <v>       0.00000000       0.00000000       8.00000000 </v>
   </varray>
   <i name="volume">    420.00000000 </i>
   <varray name="rec_basis" >
    <v>       0.14285714       0.00000000       0.00000000 </v>
    <v>       0.00000000       0.13333333       0.00000000 </v>
    <v>       0.00000000       0.00000000       0.12500000 </v>
   </varray>
  </crystal>
  <varray name="positions" >
   <v>       0.00000000       0.00000000       0.00000000 </v>
  </varray>
 </structure>
</modeling>
