   1   1   0   0
  0.5120000E+03  0.8000000E-09  0.8000000E-09  0.8000000E-09  0.5000000E-15
  1.000000000000000E-004
  CAR 
 O atom in a box                         
      6.38671545    -27.08834070  301     -7.11595610      1.00000000
    -27.088  0.0000E+00  0.0000E+00  0.0000E+00  0.0000E+00
    -26.977  0.0000E+00  0.0000E+00  0.0000E+00  0.0000E+00
    -26.865  0.0000E+00  0.0000E+00  0.0000E+00  0.0000E+00
    -26.754  0.0000E+00  0.0000E+00  0.0000E+00  0.0000E+00
    -26.642  0.0000E+00  0.0000E+00  0.0000E+00  0.0000E+00
    -26.530  0.0000E+00  0.0000E+00  0.0000E+00  0.0000E+00
    -26.419  0.0000E+00  0.0000E+00  0.0000E+00  0.0000E+00
    -26.307  0.0000E+00  0.0000E+00  0.0000E+00  0.0000E+00
    -26.196  0.2189E-13  0.0000E+00  0.2442E-14  0.0000E+00
    -26.084  0.8530E-11  0.0000E+00  0.9543E-12  0.0000E+00
    -25.973  0.1807E-08  0.0000E+00  0.2026E-09  0.0000E+00
    -25.861  0.2080E-06  0.0000E+00  0.2341E-07  0.0000E+00
    -25.749  0.1303E-04  0.0000E+00  0.1477E-05  0.0000E+00
    -25.638  0.4454E-03  0.0000E+00  0.5118E-04  0.0000E+00
    -25.526  0.8333E-02  0.0000E+00  0.9810E-03  0.0000E+00
    -25.415  0.8558E-01  0.0000E+00  0.1053E-01  0.0000E+00
    -25.303  0.4839E+00  0.0000E+00  0.6452E-01  0.0000E+00
    -25.191  0.1510E+01  0.0000E+00  0.2330E+00  0.0000E+00
    -25.080  0.2607E+01  0.0000E+00  0.5240E+00  0.0000E+00
    -24.968  0.2493E+01  0.0000E+00  0.8021E+00  0.0000E+00
    -24.857  0.1319E+01  0.0000E+00  0.9493E+00  0.0000E+00
    -24.745  0.3861E+00  0.0000E+00  0.9924E+00  0.0000E+00
    -24.634  0.6237E-01  0.0000E+00  0.9994E+00  0.0000E+00
    -24.522  0.5543E-02  0.0000E+00  0.1000E+01  0.0000E+00
    -24.410  0.2703E-03  0.0000E+00  0.1000E+01  0.0000E+00
    -24.299  0.7212E-05  0.0000E+00  0.1000E+01  0.0000E+00
    -24.187  0.1050E-06  0.0000E+00  0.1000E+01  0.0000E+00
    -24.076  0.8311E-09  0.0000E+00  0.1000E+01  0.0000E+00
    -23.964  0.3574E-11  0.0000E+00  0.1000E+01  0.0000E+00
    -23.852  0.7960E-14  0.0000E+00  0.1000E+01  0.0000E+00
    -23.741  0.0000E+00  0.0000E+00  0.1000E+01  0.0000E+00
    -23.629  0.0000E+00  0.0000E+00  0.1000E+01  0.0000E+00
    -23.518  0.0000E+00  0.0000E+00  0.1000E+01  0.0000E+00
    -23.406  0.0000E+00  0.0000E+00  0.1000E+01  0.0000E+00
    -23.295  0.0000E+00  0.0000E+00  0.1000E+01  0.0000E+00
    -23.183  0.0000E+00  0.0000E+00  0.1000E+01  0.0000E+00
    -23.071  0.0000E+00  0.0000E+00  0.1000E+01  0.0000E+00
    -22.960  0.0000E+00  0.1094E-13  0.1000E+01  0.1221E-14
    -22.848  0.0000E+00  0.4627E-11  0.1000E+01  0.5175E-12
    -22.737  0.0000E+00  0.1047E-08  0.1000E+01  0.1173E-09
    -22.625  0.0000E+00  0.1286E-06  0.1000E+01  0.1447E-07
    -22.513  0.0000E+00  0.8601E-05  0.1000E+01  0.9742E-06
    -22.402  0.0000E+00  0.3137E-03  0.1000E+01  0.3598E-04
    -22.290  0.0000E+00  0.6261E-02  0.1000E+01  0.7346E-03
    -22.179  0.0000E+00  0.6857E-01  0.1000E+01  0.8386E-02
    -22.067  0.0000E+00  0.4133E+00  0.1000E+01  0.5451E-01
    -21.955  0.0000E+00  0.1375E+01  0.1000E+01  0.2079E+00
    -21.844  0.0000E+00  0.2530E+01  0.1000E+01  0.4902E+00
    -21.732  0.0000E+00  0.2577E+01  0.1000E+01  0.7777E+00
    -21.621  0.0000E+00  0.1453E+01  0.1000E+01  0.9398E+00
    -21.509  0.0000E+00  0.4533E+00  0.1000E+01  0.9904E+00
    -21.398  0.0000E+00  0.7806E-01  0.1000E+01  0.9991E+00
    -21.286  0.0000E+00  0.7399E-02  0.1000E+01  0.1000E+01
    -21.174  0.0000E+00  0.3849E-03  0.1000E+01  0.1000E+01
    -21.063  0.0000E+00  0.1096E-04  0.1000E+01  0.1000E+01
    -20.951  0.0000E+00  0.1702E-06  0.1000E+01  0.1000E+01
    -20.840  0.0000E+00  0.1439E-08  0.1000E+01  0.1000E+01
    -20.728  0.0000E+00  0.6609E-11  0.1000E+01  0.1000E+01
    -20.616  0.0000E+00  0.1592E-13  0.1000E+01  0.1000E+01
    -20.505  0.0000E+00  0.0000E+00  0.1000E+01  0.1000E+01
    -20.393  0.0000E+00  0.0000E+00  0.1000E+01  0.1000E+01
    -20.282  0.0000E+00  0.0000E+00  0.1000E+01  0.1000E+01
    -20.170  0.0000E+00  0.0000E+00  0.1000E+01  0.1000E+01
    -20.059  0.0000E+00  0.0000E+00  0.1000E+01  0.1000E+01
    -19.947  0.0000E+00  0.0000E+00  0.1000E+01  0.1000E+01
    -19.835  0.0000E+00  0.0000E+00  0.1000E+01  0.1000E+01
    -19.724  0.0000E+00  0.0000E+00  0.1000E+01  0.1000E+01
    -19.612  0.0000E+00  0.0000E+00  0.1000E+01  0.1000E+01
    -19.501  0.0000E+00  0.0000E+00  0.1000E+01  0.1000E+01
    -19.389  0.0000E+00  0.0000E+00  0.1000E+01  0.1000E+01
    -19.277  0.0000E+00  0.0000E+00  0.1000E+01  0.1000E+01
    -19.166  0.0000E+00  0.0000E+00  0.1000E+01  0.1000E+01
    -19.054  0.0000E+00  0.0000E+00  0.1000E+01  0.1000E+01
    -18.943  0.0000E+00  0.0000E+00  0.1000E+01  0.1000E+01
    -18.831  0.0000E+00  0.0000E+00  0.1000E+01  0.1000E+01
    -18.720  0.0000E+00  0.0000E+00  0.1000E+01  0.1000E+01
    -18.608  0.0000E+00  0.0000E+00  0.1000E+01  0.1000E+01
    -18.496  0.0000E+00  0.0000E+00  0.1000E+01  0.1000E+01
    -18.385  0.0000E+00  0.0000E+00  0.1000E+01  0.1000E+01
    -18.273  0.0000E+00  0.0000E+00  0.1000E+01  0.1000E+01
    -18.162  0.0000E+00  0.0000E+00  0.1000E+01  0.1000E+01
    -18.050  0.0000E+00  0.0000E+00  0.1000E+01  0.1000E+01
    -17.938  0.0000E+00  0.0000E+00  0.1000E+01  0.1000E+01
    -17.827  0.0000E+00  0.0000E+00  0.1000E+01  0.1000E+01
    -17.715  0.0000E+00  0.0000E+00  0.1000E+01  0.1000E+01
    -17.604  0.0000E+00  0.0000E+00  0.1000E+01  0.1000E+01
    -17.492  0.0000E+00  0.0000E+00  0.1000E+01  0.1000E+01
    -17.381  0.0000E+00  0.0000E+00  0.1000E+01  0.1000E+01
    -17.269  0.0000E+00  0.0000E+00  0.1000E+01  0.1000E+01
    -17.157  0.0000E+00  0.0000E+00  0.1000E+01  0.1000E+01
    -17.046  0.0000E+00  0.0000E+00  0.1000E+01  0.1000E+01
    -16.934  0.0000E+00  0.0000E+00  0.1000E+01  0.1000E+01
    -16.823  0.0000E+00  0.0000E+00  0.1000E+01  0.1000E+01
    -16.711  0.0000E+00  0.0000E+00  0.1000E+01  0.1000E+01
    -16.599  0.0000E+00  0.0000E+00  0.1000E+01  0.1000E+01
    -16.488  0.0000E+00  0.0000E+00  0.1000E+01  0.1000E+01
    -16.376  0.0000E+00  0.0000E+00  0.1000E+01  0.1000E+01
    -16.265  0.0000E+00  0.0000E+00  0.1000E+01  0.1000E+01
    -16.153  0.0000E+00  0.0000E+00  0.1000E+01  0.1000E+01
    -16.042  0.0000E+00  0.0000E+00  0.1000E+01  0.1000E+01
    -15.930  0.0000E+00  0.0000E+00  0.1000E+01  0.1000E+01
    -15.818  0.0000E+00  0.0000E+00  0.1000E+01  0.1000E+01
    -15.707  0.0000E+00  0.0000E+00  0.1000E+01  0.1000E+01
    -15.595  0.0000E+00  0.0000E+00  0.1000E+01  0.1000E+01
    -15.484  0.0000E+00  0.0000E+00  0.1000E+01  0.1000E+01
    -15.372  0.0000E+00  0.0000E+00  0.1000E+01  0.1000E+01
    -15.260  0.0000E+00  0.0000E+00  0.1000E+01  0.1000E+01
    -15.149  0.0000E+00  0.0000E+00  0.1000E+01  0.1000E+01
    -15.037  0.0000E+00  0.0000E+00  0.1000E+01  0.1000E+01
    -14.926  0.0000E+00  0.0000E+00  0.1000E+01  0.1000E+01
    -14.814  0.0000E+00  0.0000E+00  0.1000E+01  0.1000E+01
    -14.703  0.0000E+00  0.0000E+00  0.1000E+01  0.1000E+01
    -14.591  0.0000E+00  0.0000E+00  0.1000E+01  0.1000E+01
    -14.479  0.0000E+00  0.0000E+00  0.1000E+01  0.1000E+01
    -14.368  0.0000E+00  0.0000E+00  0.1000E+01  0.1000E+01
    -14.256  0.0000E+00  0.0000E+00  0.1000E+01  0.1000E+01
    -14.145  0.0000E+00  0.0000E+00  0.1000E+01  0.1000E+01
    -14.033  0.0000E+00  0.0000E+00  0.1000E+01  0.1000E+01
    -13.921  0.0000E+00  0.0000E+00  0.1000E+01  0.1000E+01
    -13.810  0.0000E+00  0.0000E+00  0.1000E+01  0.1000E+01
    -13.698  0.0000E+00  0.0000E+00  0.1000E+01  0.1000E+01
    -13.587  0.0000E+00  0.0000E+00  0.1000E+01  0.1000E+01
    -13.475  0.0000E+00  0.0000E+00  0.1000E+01  0.1000E+01
    -13.364  0.0000E+00  0.0000E+00  0.1000E+01  0.1000E+01
    -13.252  0.0000E+00  0.0000E+00  0.1000E+01  0.1000E+01
    -13.140  0.0000E+00  0.0000E+00  0.1000E+01  0.1000E+01
    -13.029  0.0000E+00  0.0000E+00  0.1000E+01  0.1000E+01
    -12.917  0.0000E+00  0.0000E+00  0.1000E+01  0.1000E+01
    -12.806  0.0000E+00  0.0000E+00  0.1000E+01  0.1000E+01
    -12.694  0.0000E+00  0.0000E+00  0.1000E+01  0.1000E+01
    -12.582  0.0000E+00  0.0000E+00  0.1000E+01  0.1000E+01
    -12.471  0.0000E+00  0.0000E+00  0.1000E+01  0.1000E+01
    -12.359  0.0000E+00  0.0000E+00  0.1000E+01  0.1000E+01
    -12.248  0.0000E+00  0.0000E+00  0.1000E+01  0.1000E+01
    -12.136  0.0000E+00  0.0000E+00  0.1000E+01  0.1000E+01
    -12.025  0.0000E+00  0.0000E+00  0.1000E+01  0.1000E+01
    -11.913  0.0000E+00  0.0000E+00  0.1000E+01  0.1000E+01
    -11.801  0.0000E+00  0.0000E+00  0.1000E+01  0.1000E+01
    -11.690  0.0000E+00  0.0000E+00  0.1000E+01  0.1000E+01
    -11.578  0.0000E+00  0.0000E+00  0.1000E+01  0.1000E+01
    -11.467  0.0000E+00  0.0000E+00  0.1000E+01  0.1000E+01
    -11.355  0.0000E+00  0.0000E+00  0.1000E+01  0.1000E+01
    -11.243  0.2985E-14  0.0000E+00  0.1000E+01  0.1000E+01
    -11.132  0.1660E-11  0.0000E+00  0.1000E+01  0.1000E+01
    -11.020  0.4689E-09  0.0000E+00  0.1000E+01  0.1000E+01
    -10.909  0.7192E-07  0.0000E+00  0.1000E+01  0.1000E+01
    -10.797  0.5999E-05  0.0000E+00  0.1000E+01  0.1000E+01
    -10.686  0.2727E-03  0.0000E+00  0.1000E+01  0.1000E+01
    -10.574  0.6776E-02  0.0000E+00  0.1001E+01  0.1000E+01
    -10.462  0.9229E-01  0.0000E+00  0.1011E+01  0.1000E+01
    -10.351  0.6910E+00  0.0000E+00  0.1088E+01  0.1000E+01
    -10.239  0.2853E+01  0.0000E+00  0.1407E+01  0.1000E+01
    -10.128  0.6510E+01  0.0000E+00  0.2133E+01  0.1000E+01
    -10.016  0.8222E+01  0.0000E+00  0.3050E+01  0.1000E+01
     -9.904  0.5750E+01  0.0000E+00  0.3692E+01  0.1000E+01
     -9.793  0.2225E+01  0.0000E+00  0.3940E+01  0.1000E+01
     -9.681  0.4758E+00  0.0000E+00  0.3993E+01  0.1000E+01
     -9.570  0.5606E-01  0.0000E+00  0.4000E+01  0.1000E+01
     -9.458  0.3629E-02  0.0000E+00  0.4000E+01  0.1000E+01
     -9.347  0.1287E-03  0.0000E+00  0.4000E+01  0.1000E+01
     -9.235  0.2493E-05  0.0000E+00  0.4000E+01  0.1000E+01
     -9.123  0.2631E-07  0.0000E+00  0.4000E+01  0.1000E+01
     -9.012  0.1509E-09  0.0000E+00  0.4000E+01  0.1000E+01
     -8.900  0.4716E-12  0.0000E+00  0.4000E+01  0.1000E+01
     -8.789  0.0000E+00  0.0000E+00  0.4000E+01  0.1000E+01
     -8.677  0.0000E+00  0.0000E+00  0.4000E+01  0.1000E+01
     -8.565  0.0000E+00  0.0000E+00  0.4000E+01  0.1000E+01
     -8.454  0.0000E+00  0.0000E+00  0.4000E+01  0.1000E+01
     -8.342  0.0000E+00  0.0000E+00  0.4000E+01  0.1000E+01
     -8.231  0.0000E+00  0.1492E-14  0.4000E+01  0.1000E+01
     -8.119  0.0000E+00  0.7104E-12  0.4000E+01  0.1000E+01
     -8.008  0.0000E+00  0.2192E-09  0.4000E+01  0.1000E+01
     -7.896  0.0000E+00  0.3665E-07  0.4000E+01  0.1000E+01
     -7.784  0.0000E+00  0.3331E-05  0.4000E+01  0.1000E+01
     -7.673  0.0000E+00  0.1650E-03  0.4000E+01  0.1000E+01
     -7.561  0.0000E+00  0.4464E-02  0.4000E+01  0.1001E+01
     -7.450  0.0000E+00  0.6617E-01  0.4000E+01  0.1008E+01
     -7.338  0.0000E+00  0.5391E+00  0.4000E+01  0.1068E+01
     -7.226  0.0000E+00  0.2421E+01  0.4000E+01  0.1338E+01
     -7.115  0.0000E+00  0.6005E+01  0.4000E+01  0.2008E+01
     -7.003  0.0000E+00  0.8245E+01  0.4000E+01  0.2928E+01
     -6.892  0.0000E+00  0.6269E+01  0.4000E+01  0.3628E+01
     -6.780  0.0000E+00  0.2638E+01  0.4000E+01  0.3922E+01
     -6.669  0.0000E+00  0.6135E+00  0.4000E+01  0.3991E+01
     -6.557  0.0000E+00  0.7864E-01  0.4000E+01  0.3999E+01
     -6.445  0.0000E+00  0.5542E-02  0.4000E+01  0.4000E+01
     -6.334  0.0000E+00  0.2140E-03  0.4000E+01  0.4000E+01
     -6.222  0.0000E+00  0.4516E-05  0.4000E+01  0.4000E+01
     -6.111  0.0000E+00  0.5193E-07  0.4000E+01  0.4000E+01
     -5.999  0.0000E+00  0.3247E-09  0.4000E+01  0.4000E+01
     -5.887  0.0000E+00  0.1104E-11  0.4000E+01  0.4000E+01
     -5.776  0.0000E+00  0.0000E+00  0.4000E+01  0.4000E+01
     -5.664  0.0000E+00  0.0000E+00  0.4000E+01  0.4000E+01
     -5.553  0.0000E+00  0.0000E+00  0.4000E+01  0.4000E+01
     -5.441  0.0000E+00  0.0000E+00  0.4000E+01  0.4000E+01
     -5.330  0.0000E+00  0.0000E+00  0.4000E+01  0.4000E+01
     -5.218  0.0000E+00  0.0000E+00  0.4000E+01  0.4000E+01
     -5.106  0.0000E+00  0.0000E+00  0.4000E+01  0.4000E+01
     -4.995  0.0000E+00  0.0000E+00  0.4000E+01  0.4000E+01
     -4.883  0.0000E+00  0.0000E+00  0.4000E+01  0.4000E+01
     -4.772  0.0000E+00  0.0000E+00  0.4000E+01  0.4000E+01
     -4.660  0.0000E+00  0.0000E+00  0.4000E+01  0.4000E+01
     -4.548  0.0000E+00  0.0000E+00  0.4000E+01  0.4000E+01
     -4.437  0.0000E+00  0.0000E+00  0.4000E+01  0.4000E+01
     -4.325  0.0000E+00  0.0000E+00  0.4000E+01  0.4000E+01
     -4.214  0.0000E+00  0.0000E+00  0.4000E+01  0.4000E+01
     -4.102  0.0000E+00  0.0000E+00  0.4000E+01  0.4000E+01
     -3.991  0.0000E+00  0.0000E+00  0.4000E+01  0.4000E+01
     -3.879  0.0000E+00  0.0000E+00  0.4000E+01  0.4000E+01
     -3.767  0.0000E+00  0.0000E+00  0.4000E+01  0.4000E+01
     -3.656  0.0000E+00  0.0000E+00  0.4000E+01  0.4000E+01
     -3.544  0.0000E+00  0.0000E+00  0.4000E+01  0.4000E+01
     -3.433  0.0000E+00  0.0000E+00  0.4000E+01  0.4000E+01
     -3.321  0.0000E+00  0.0000E+00  0.4000E+01  0.4000E+01
     -3.209  0.0000E+00  0.0000E+00  0.4000E+01  0.4000E+01
     -3.098  0.0000E+00  0.0000E+00  0.4000E+01  0.4000E+01
     -2.986  0.0000E+00  0.0000E+00  0.4000E+01  0.4000E+01
     -2.875  0.0000E+00  0.0000E+00  0.4000E+01  0.4000E+01
     -2.763  0.0000E+00  0.0000E+00  0.4000E+01  0.4000E+01
     -2.652  0.0000E+00  0.0000E+00  0.4000E+01  0.4000E+01
     -2.540  0.0000E+00  0.0000E+00  0.4000E+01  0.4000E+01
     -2.428  0.0000E+00  0.0000E+00  0.4000E+01  0.4000E+01
     -2.317  0.0000E+00  0.0000E+00  0.4000E+01  0.4000E+01
     -2.205  0.0000E+00  0.0000E+00  0.4000E+01  0.4000E+01
     -2.094  0.0000E+00  0.0000E+00  0.4000E+01  0.4000E+01
     -1.982  0.0000E+00  0.0000E+00  0.4000E+01  0.4000E+01
     -1.870  0.0000E+00  0.0000E+00  0.4000E+01  0.4000E+01
     -1.759  0.0000E+00  0.0000E+00  0.4000E+01  0.4000E+01
     -1.647  0.4477E-14  0.0000E+00  0.4000E+01  0.4000E+01
     -1.536  0.2009E-11  0.0000E+00  0.4000E+01  0.4000E+01
     -1.424  0.4966E-09  0.5472E-13  0.4000E+01  0.4000E+01
     -1.313  0.6664E-07  0.1956E-10  0.4000E+01  0.4000E+01
     -1.201  0.4865E-05  0.3786E-08  0.4000E+01  0.4000E+01
     -1.089  0.1937E-03  0.3982E-06  0.4000E+01  0.4000E+01
     -0.978  0.4216E-02  0.2281E-04  0.4000E+01  0.4000E+01
     -0.866  0.5035E-01  0.7131E-03  0.4006E+01  0.4000E+01
     -0.755  0.3308E+00  0.1221E-01  0.4043E+01  0.4001E+01
     -0.643  0.1199E+01  0.1148E+00  0.4177E+01  0.4014E+01
     -0.531  0.2402E+01  0.5943E+00  0.4445E+01  0.4081E+01
     -0.420  0.2665E+01  0.1699E+01  0.4742E+01  0.4270E+01
     -0.308  0.1637E+01  0.2688E+01  0.4925E+01  0.4570E+01
     -0.197  0.5565E+00  0.2355E+01  0.4987E+01  0.4833E+01
     -0.085  0.1044E+00  0.1142E+01  0.4999E+01  0.4960E+01
      0.026  0.1079E-01  0.3062E+00  0.5000E+01  0.4995E+01
      0.138  0.6124E-03  0.4529E-01  0.5000E+01  0.5000E+01
      0.250  0.1903E-04  0.3685E-02  0.5000E+01  0.5000E+01
      0.361  0.3226E-06  0.1644E-03  0.5000E+01  0.5000E+01
      0.473  0.2979E-08  0.4011E-05  0.5000E+01  0.5000E+01
      0.584  0.1494E-10  0.5336E-07  0.5000E+01  0.5000E+01
      0.696  0.9004E-13  0.3861E-09  0.5000E+01  0.5000E+01
      0.808  0.2032E-10  0.1517E-11  0.5000E+01  0.5000E+01
      0.919  0.4550E-08  0.1373E-12  0.5000E+01  0.5000E+01
      1.031  0.5533E-06  0.4913E-10  0.5000E+01  0.5000E+01
      1.142  0.3662E-04  0.9713E-08  0.5000E+01  0.5000E+01
      1.254  0.1323E-02  0.1045E-05  0.5000E+01  0.5000E+01
      1.365  0.2615E-01  0.6132E-04  0.5003E+01  0.5000E+01
      1.477  0.2840E+00  0.1975E-02  0.5035E+01  0.5000E+01
      1.589  0.1704E+01  0.3512E-01  0.5225E+01  0.5004E+01
      1.700  0.5706E+01  0.3488E+00  0.5862E+01  0.5043E+01
      1.812  0.1096E+02  0.1965E+01  0.7084E+01  0.5262E+01
      1.923  0.1294E+02  0.6421E+01  0.8528E+01  0.5979E+01
      2.035  0.1075E+02  0.1252E+02  0.9727E+01  0.7376E+01
      2.147  0.6967E+01  0.1494E+02  0.1050E+02  0.9043E+01
      2.258  0.3283E+01  0.1102E+02  0.1087E+02  0.1027E+02
      2.370  0.9743E+00  0.4963E+01  0.1098E+02  0.1083E+02
      2.481  0.1672E+00  0.1331E+01  0.1100E+02  0.1097E+02
      2.593  0.1603E-01  0.2068E+00  0.1100E+02  0.1100E+02
      2.704  0.8469E-03  0.1822E-01  0.1100E+02  0.1100E+02
      2.816  0.2453E-04  0.8963E-03  0.1100E+02  0.1100E+02
      2.928  0.3877E-06  0.2438E-04  0.1100E+02  0.1100E+02
      3.039  0.3380E-08  0.3641E-06  0.1100E+02  0.1100E+02
      3.151  0.8444E-08  0.3070E-08  0.1100E+02  0.1100E+02
      3.262  0.9009E-06  0.1777E-07  0.1100E+02  0.1100E+02
      3.374  0.5316E-04  0.1767E-05  0.1100E+02  0.1100E+02
      3.486  0.1738E-02  0.9580E-04  0.1100E+02  0.1100E+02
      3.597  0.3157E-01  0.2837E-02  0.1100E+02  0.1100E+02
      3.709  0.3196E+00  0.4601E-01  0.1104E+02  0.1101E+02
      3.820  0.1809E+01  0.4107E+00  0.1124E+02  0.1105E+02
      3.932  0.5733E+01  0.2030E+01  0.1188E+02  0.1128E+02
      4.043  0.1023E+02  0.5650E+01  0.1302E+02  0.1191E+02
      4.155  0.1049E+02  0.9263E+01  0.1419E+02  0.1294E+02
      4.267  0.6937E+01  0.1003E+02  0.1497E+02  0.1406E+02
      4.378  0.4236E+01  0.8437E+01  0.1544E+02  0.1500E+02
      4.490  0.2908E+01  0.5616E+01  0.1576E+02  0.1563E+02
      4.601  0.1539E+01  0.2532E+01  0.1594E+02  0.1591E+02
      4.713  0.4854E+00  0.6806E+00  0.1599E+02  0.1599E+02
      4.825  0.8562E-01  0.1033E+00  0.1600E+02  0.1600E+02
      4.936  0.8334E-02  0.8677E-02  0.1600E+02  0.1600E+02
      5.048  0.4454E-03  0.4007E-03  0.1600E+02  0.1600E+02
      5.159  0.1303E-04  0.1012E-04  0.1600E+02  0.1600E+02
      5.271  0.2080E-06  0.1395E-06  0.1600E+02  0.1600E+02
      5.382  0.1807E-08  0.1046E-08  0.1600E+02  0.1600E+02
      5.494  0.8531E-11  0.4258E-11  0.1600E+02  0.1600E+02
      5.606  0.2189E-13  0.7960E-14  0.1600E+02  0.1600E+02
      5.717  0.0000E+00  0.0000E+00  0.1600E+02  0.1600E+02
      5.829  0.0000E+00  0.0000E+00  0.1600E+02  0.1600E+02
      5.940  0.0000E+00  0.0000E+00  0.1600E+02  0.1600E+02
      6.052  0.0000E+00  0.0000E+00  0.1600E+02  0.1600E+02
      6.164  0.0000E+00  0.0000E+00  0.1600E+02  0.1600E+02
      6.275  0.0000E+00  0.0000E+00  0.1600E+02  0.1600E+02
      6.387  0.0000E+00  0.0000E+00  0.1600E+02  0.1600E+02
