    1    1    1    2
  0.5120000E+03  0.8000000E-09  0.8000000E-09  0.8000000E-09  0.5000000E-15
  1.000000000000000E-004
  CAR 
 O atom in a box                         
      6      1     16
 
  0.0000000E+00  0.0000000E+00  0.0000000E+00  0.1000000E+01
    1      -25.088341    -21.840433   1.000000   1.000000
    2      -10.083564     -7.055042   1.000000   0.333333
    3      -10.083564     -7.055042   1.000000   0.333333
    4      -10.083564     -7.055042   1.000000   0.333333
    5       -0.511854     -0.333286   0.000000   0.000000
    6        1.810191      2.013553   0.000000   0.000000
    7        1.814669      2.013554   0.000000   0.000000
    8        1.814669      2.013554   0.000000   0.000000
    9        1.814669      2.121718   0.000000   0.000000
   10        2.041694      2.147610   0.000000   0.000000
   11        2.041694      2.147610   0.000000   0.000000
   12        4.007623      4.119952   0.000000   0.000000
   13        4.053592      4.119952   0.000000   0.000000
   14        4.053592      4.119952   0.000000   0.000000
   15        4.053592      4.359714   0.000000   0.000000
   16        4.386715      4.359714   0.000000   0.000000
