       N       E                     dE             d eps       ncg     rms          rms(c)
DAV:   1     0.359129218201E+02    0.35913E+02   -0.94965E+02    64   0.130E+02
DAV:   2    -0.588124428213E+00   -0.36501E+02   -0.36404E+02   128   0.244E+01
DAV:   3    -0.126034215393E+01   -0.67222E+00   -0.65872E+00    64   0.752E+00
DAV:   4    -0.126284784589E+01   -0.25057E-02   -0.25055E-02   128   0.523E-01
DAV:   5    -0.126284793616E+01   -0.90263E-07   -0.90176E-07   112   0.292E-03    0.653E+00
DAV:   6     0.161611829493E+00    0.14245E+01   -0.32436E+00    80   0.447E+00    0.148E+00
DAV:   7    -0.112854268336E+01   -0.12902E+01   -0.80385E-01    80   0.196E+00    0.504E-01
DAV:   8    -0.150139006720E+01   -0.37285E+00   -0.79216E-02    64   0.658E-01    0.216E-01
DAV:   9    -0.164795810118E+01   -0.14657E+00   -0.26910E-02    80   0.368E-01    0.111E-01
DAV:  10    -0.167187920821E+01   -0.23921E-01   -0.46063E-03    64   0.162E-01    0.224E-02
DAV:  11    -0.167260334549E+01   -0.72414E-03   -0.38710E-04    64   0.410E-02    0.995E-03
DAV:  12    -0.167298648417E+01   -0.38314E-03   -0.27925E-05    64   0.126E-02    0.385E-03
DAV:  13    -0.167302280812E+01   -0.36324E-04   -0.17964E-06    96   0.388E-03
   1 F= -.16730228E+01 E0= -.15958916E+01  d E =-.154262E+00  mag=     1.9999
