<?xml version="1.0" encoding="ISO-8859-1"?>
<modeling>
 <generator>
  <i name="program" type="string">vasp </i>
  <i name="version" type="string">5.4.1  </i>
  <i name="subversion" type="string">24Jun15 (build Apr 04 2016 10:44:54) complex                          parallel </i>
  <i name="platform" type="string">Titan </i>
  <i name="date" type="string">2018 12 04 </i>
  <i name="time" type="string">13:29:28 </i>
 </generator>
 <incar>
  <i type="string" name="SYSTEM"> O atom in a box</i>
  <i type="string" name="PREC">normal</i>
  <i type="int" name="ISPIN">     2</i>
  <i type="int" name="ISMEAR">     0</i>
  <v type="int" name="KPOINT_BSE">    -1     0     0     0</v>
 </incar>
 <kpoints>
  <varray name="kpointlist" >
   <v>       0.00000000       0.00000000       0.00000000 </v>
  </varray>
  <varray name="weights" >
   <v>       1.00000000 </v>
  </varray>
 </kpoints>
 <parameters>
  <separator name="general" >
   <i type="string" name="SYSTEM">O atom in a box</i>
   <i type="logical" name="LCOMPAT"> F  </i>
  </separator>
  <separator name="electronic" >
   <i type="string" name="PREC">normal</i>
   <i name="ENMAX">    400.00000000</i>
   <i name="ENAUG">    605.39200000</i>
   <i name="EDIFF">      0.00010000</i>
   <i type="int" name="IALGO">    38</i>
   <i type="int" name="IWAVPR">    10</i>
   <i type="int" name="NBANDS">    16</i>
   <i name="NELECT">      6.00000000</i>
   <i type="int" name="TURBO">     0</i>
   <i type="int" name="IRESTART">     0</i>
   <i type="int" name="NREBOOT">     0</i>
   <i type="int" name="NMIN">     0</i>
   <i name="EREF">      0.00000000</i>
   <separator name="electronic smearing" >
    <i type="int" name="ISMEAR">     0</i>
    <i name="SIGMA">      0.20000000</i>
    <i name="KSPACING">      0.50000000</i>
    <i type="logical" name="KGAMMA"> T  </i>
   </separator>
   <separator name="electronic projectors" >
    <i type="logical" name="LREAL"> F  </i>
    <v name="ROPT">      0.00000000</v>
    <i type="int" name="LMAXPAW">  -100</i>
    <i type="int" name="LMAXMIX">     2</i>
    <i type="logical" name="NLSPLINE"> F  </i>
   </separator>
   <separator name="electronic startup" >
    <i type="int" name="ISTART">     0</i>
    <i type="int" name="ICHARG">     2</i>
    <i type="int" name="INIWAV">     1</i>
   </separator>
   <separator name="electronic spin" >
    <i type="int" name="ISPIN">     2</i>
    <i type="logical" name="LNONCOLLINEAR"> F  </i>
    <v name="MAGMOM">      1.00000000</v>
    <i name="NUPDOWN">     -1.00000000</i>
    <i type="logical" name="LSORBIT"> F  </i>
    <v name="SAXIS">      0.00000000      0.00000000      1.00000000</v>
    <i type="logical" name="LSPIRAL"> F  </i>
    <v name="QSPIRAL">      0.00000000      0.00000000      0.00000000</v>
    <i type="logical" name="LZEROZ"> F  </i>
   </separator>
   <separator name="electronic exchange-correlation" >
    <i type="logical" name="LASPH"> F  </i>
    <i type="logical" name="LMETAGGA"> F  </i>
   </separator>
   <separator name="electronic convergence" >
    <i type="int" name="NELM">    60</i>
    <i type="int" name="NELMDL">    -5</i>
    <i type="int" name="NELMIN">     2</i>
    <i name="ENINI">    400.00000000</i>
    <separator name="electronic convergence detail" >
     <i type="logical" name="LDIAG"> T  </i>
     <i type="logical" name="LSUBROT"> F  </i>
     <i name="WEIMIN">      0.00000000</i>
     <i name="EBREAK">      0.00000156</i>
     <i name="DEPER">      0.30000000</i>
     <i type="int" name="NRMM">     4</i>
     <i name="TIME">      0.40000000</i>
    </separator>
   </separator>
   <separator name="electronic mixer" >
    <i name="AMIX">      0.40000000</i>
    <i name="BMIX">      1.00000000</i>
    <i name="AMIN">      0.10000000</i>
    <i name="AMIX_MAG">      1.60000000</i>
    <i name="BMIX_MAG">      1.00000000</i>
    <separator name="electronic mixer details" >
     <i type="int" name="IMIX">     4</i>
     <i type="logical" name="MIXFIRST"> F  </i>
     <i type="int" name="MAXMIX">   -45</i>
     <i name="WC">    100.00000000</i>
     <i type="int" name="INIMIX">     1</i>
     <i type="int" name="MIXPRE">     1</i>
     <i type="int" name="MREMOVE">     5</i>
    </separator>
   </separator>
   <separator name="electronic dipolcorrection" >
    <i type="logical" name="LDIPOL"> F  </i>
    <i type="logical" name="LMONO"> F  </i>
    <i type="int" name="IDIPOL">     0</i>
    <i name="EPSILON">      1.00000000</i>
    <v name="DIPOL">   -100.00000000   -100.00000000   -100.00000000</v>
    <i name="EFIELD">      0.00000000</i>
   </separator>
  </separator>
  <separator name="grids" >
   <i type="int" name="NGX">    40</i>
   <i type="int" name="NGY">    40</i>
   <i type="int" name="NGZ">    40</i>
   <i type="int" name="NGXF">    80</i>
   <i type="int" name="NGYF">    80</i>
   <i type="int" name="NGZF">    80</i>
   <i type="logical" name="ADDGRID"> F  </i>
  </separator>
  <separator name="ionic" >
   <i type="int" name="NSW">     0</i>
   <i type="int" name="IBRION">    -1</i>
   <i type="int" name="ISIF">     2</i>
   <i name="PSTRESS">      0.00000000</i>
   <i name="EDIFFG">      0.00100000</i>
   <i type="int" name="NFREE">     0</i>
   <i name="POTIM">      0.50000000</i>
   <i name="SMASS">     -3.00000000</i>
   <i name="SCALEE">      1.00000000</i>
  </separator>
  <separator name="ionic md" >
   <i name="TEBEG">      0.00010000</i>
   <i name="TEEND">      0.00010000</i>
   <i type="int" name="NBLOCK">     1</i>
   <i type="int" name="KBLOCK">     1</i>
   <i type="int" name="NPACO">   256</i>
   <i name="APACO">     16.00000000</i>
  </separator>
  <separator name="symmetry" >
   <i type="int" name="ISYM">     2</i>
   <i name="SYMPREC">      0.00001000</i>
  </separator>
  <separator name="dos" >
   <i type="logical" name="LORBIT"> F  </i>
   <v name="RWIGS">     -1.00000000</v>
   <i type="int" name="NEDOS">   301</i>
   <i name="EMIN">     10.00000000</i>
   <i name="EMAX">    -10.00000000</i>
   <i name="EFERMI">      0.00000000</i>
  </separator>
  <separator name="writing" >
   <i type="int" name="NWRITE">     2</i>
   <i type="logical" name="LWAVE"> T  </i>
   <i type="logical" name="LCHARG"> T  </i>
   <i type="logical" name="LPARD"> F  </i>
   <i type="logical" name="LVTOT"> F  </i>
   <i type="logical" name="LVHAR"> F  </i>
   <i type="logical" name="LELF"> F  </i>
   <i type="logical" name="LOPTICS"> F  </i>
   <v name="STM">      0.00000000      0.00000000      0.00000000      0.00000000      0.00000000      0.00000000      0.00000000</v>
  </separator>
  <separator name="performance" >
   <i type="int" name="NPAR">    16</i>
   <i type="int" name="NSIM">     4</i>
   <i type="int" name="NBLK">    -1</i>
   <i type="logical" name="LPLANE"> T  </i>
   <i type="logical" name="LSCALAPACK"> T  </i>
   <i type="logical" name="LSCAAWARE"> F  </i>
   <i type="logical" name="LSCALU"> F  </i>
   <i type="logical" name="LASYNC"> F  </i>
   <i type="logical" name="LORBITALREAL"> F  </i>
  </separator>
  <separator name="miscellaneous" >
   <i type="int" name="IDIOT">     3</i>
   <i type="logical" name="LMUSIC"> F  </i>
   <v name="POMASS">     16.00000000</v>
   <v name="DARWINR">      0.00000000</v>
   <v name="DARWINV">      1.00000000</v>
   <i type="logical" name="LCORR"> T  </i>
  </separator>
  <i type="logical" name="GGA_COMPAT"> T  </i>
  <i type="logical" name="LBERRY"> F  </i>
  <i type="int" name="ICORELEVEL">     0</i>
  <i type="logical" name="LDAU"> F  </i>
  <i type="int" name="I_CONSTRAINED_M">     0</i>
  <separator name="electronic exchange-correlation" >
   <i type="string" name="GGA">--</i>
   <i type="int" name="VOSKOWN">     0</i>
   <i type="logical" name="LHFCALC"> F  </i>
   <i type="string" name="PRECFOCK"></i>
   <i type="logical" name="LSYMGRAD"> F  </i>
   <i type="logical" name="LHFONE"> F  </i>
   <i type="logical" name="LRHFCALC"> F  </i>
   <i type="logical" name="LTHOMAS"> F  </i>
   <i type="logical" name="LMODELHF"> F  </i>
   <i name="ENCUT4O">     -1.00000000</i>
   <i type="int" name="EXXOEP">     0</i>
   <i type="int" name="FOURORBIT">     0</i>
   <i name="AEXX">      0.00000000</i>
   <i name="HFALPHA">      0.00000000</i>
   <i name="MCALPHA">      0.00000000</i>
   <i name="ALDAX">      1.00000000</i>
   <i name="AGGAX">      1.00000000</i>
   <i name="ALDAC">      1.00000000</i>
   <i name="AGGAC">      1.00000000</i>
   <i type="int" name="NKREDX">     1</i>
   <i type="int" name="NKREDY">     1</i>
   <i type="int" name="NKREDZ">     1</i>
   <i type="logical" name="SHIFTRED"> F  </i>
   <i type="logical" name="ODDONLY"> F  </i>
   <i type="logical" name="EVENONLY"> F  </i>
   <i type="int" name="LMAXFOCK">     0</i>
   <i type="int" name="NMAXFOCKAE">     0</i>
   <i type="logical" name="LFOCKAEDFT"> F  </i>
   <i name="HFSCREEN">      0.00000000</i>
   <i name="HFSCREENC">      0.00000000</i>
   <i type="int" name="NBANDSGWLOW">     0</i>
  </separator>
  <separator name="vdW DFT" >
   <i type="logical" name="LUSE_VDW"> F  </i>
   <i name="Zab_VDW">     -0.84910000</i>
   <i name="PARAM1">      0.12340000</i>
   <i name="PARAM2">      1.00000000</i>
   <i name="PARAM3">      0.00000000</i>
  </separator>
  <separator name="model GW" >
   <i type="int" name="MODEL_GW">     0</i>
   <i name="MODEL_EPS0">    307.20000000</i>
   <i name="MODEL_ALPHA">      1.00000000</i>
  </separator>
  <separator name="linear response parameters" >
   <i type="logical" name="LEPSILON"> F  </i>
   <i type="logical" name="LRPA"> F  </i>
   <i type="logical" name="LNABLA"> F  </i>
   <i type="logical" name="LVEL"> F  </i>
   <i type="int" name="KINTER">     0</i>
   <i name="CSHIFT">      0.10000000</i>
   <i name="OMEGAMAX">     -1.00000000</i>
   <i name="DEG_THRESHOLD">      0.00200000</i>
  </separator>
  <separator name="orbital magnetization" >
   <i type="logical" name="NUCIND"> F  </i>
   <v name="MAGPOS">      0.00000000      0.00000000      0.00000000</v>
   <i type="logical" name="LNICSALL"> T  </i>
   <i type="logical" name="ORBITALMAG"> F  </i>
   <i type="logical" name="LMAGBLOCH"> F  </i>
   <i type="logical" name="LCHIMAG"> F  </i>
   <i type="logical" name="LGAUGE"> T  </i>
   <i type="int" name="MAGATOM">     0</i>
   <v name="MAGDIPOL">      0.00000000      0.00000000      0.00000000</v>
   <v name="AVECCONST">      0.00000000      0.00000000      0.00000000</v>
  </separator>
  <separator name="response functions" >
   <i type="logical" name="LADDER"> F  </i>
   <i type="logical" name="LFXC"> F  </i>
   <i type="logical" name="LHARTREE"> T  </i>
   <i type="int" name="IBSE">     0</i>
   <v type="int" name="KPOINT">    -1     0     0     0</v>
   <i type="logical" name="LTCTE"> F  </i>
   <i type="logical" name="LTETE"> F  </i>
   <i type="logical" name="LTRIPLET"> F  </i>
   <i type="logical" name="LFXCEPS"> F  </i>
   <i type="logical" name="LFXHEG"> F  </i>
   <i type="int" name="NATURALO">     0</i>
   <i type="logical" name="L2ORDER"> F  </i>
   <i type="logical" name="LUSEW"> F  </i>
   <i name="ENCUTGW">     -2.00000000</i>
   <i name="ENCUTGWSOFT">     -2.00000000</i>
   <i name="ENCUTLF">     -1.00000000</i>
   <i type="int" name="LMAXMP2">    -1</i>
   <i name="SCISSOR">      0.00000000</i>
   <i type="int" name="NOMEGA">     0</i>
   <i type="int" name="NOMEGAR">     0</i>
   <i type="int" name="NBANDSGW">    -1</i>
   <i type="int" name="NBANDSO">    -1</i>
   <i type="int" name="NBANDSV">    -1</i>
   <i type="int" name="NELM">     1</i>
   <i type="int" name="NELMHF">     1</i>
   <i type="int" name="DIM">     3</i>
   <i type="int" name="ANTIRES">     0</i>
   <i name="OMEGAMAX">    -30.00000000</i>
   <i name="OMEGAMIN">    -30.00000000</i>
   <i name="OMEGATL">   -200.00000000</i>
   <i type="int" name="OMEGAGRID">     0</i>
   <i name="CSHIFT">     -0.10000000</i>
   <i type="logical" name="SELFENERGY"> F  </i>
   <i type="logical" name="LSPECTRAL"> F  </i>
   <i type="logical" name="LSPECTRALGW"> F  </i>
   <i type="logical" name="LSINGLES"> F  </i>
   <i type="logical" name="LFERMIGW"> F  </i>
   <i type="logical" name="ODDONLYGW"> F  </i>
   <i type="logical" name="EVENONLYGW"> F  </i>
   <i type="int" name="NKREDLFX">     1</i>
   <i type="int" name="NKREDLFY">     1</i>
   <i type="int" name="NKREDLFZ">     1</i>
   <i type="int" name="MAXMEM">  1800</i>
   <i type="int" name="TELESCOPE">     0</i>
   <i type="int" name="TAUPAR">     1</i>
   <i type="int" name="OMEGAPAR">    -1</i>
   <i name="LAMBDA">      1.00000000</i>
  </separator>
  <separator name="External order field" >
   <i name="OFIELD_KAPPA">      0.00000000</i>
   <v name="OFIELD_K">      0.00000000      0.00000000      0.00000000</v>
   <i name="OFIELD_Q6_NEAR">      0.00000000</i>
   <i name="OFIELD_Q6_FAR">      0.00000000</i>
   <i name="OFIELD_A">      0.00000000</i>
  </separator>
 </parameters>
 <atominfo>
  <atoms>       1 </atoms>
  <types>       1 </types>
  <array name="atoms" >
   <dimension dim="1">ion</dimension>
   <field type="string">element</field>
   <field type="int">atomtype</field>
   <set>
    <rc><c>O </c><c>   1</c></rc>
   </set>
  </array>
  <array name="atomtypes" >
   <dimension dim="1">type</dimension>
   <field type="int">atomspertype</field>
   <field type="string">element</field>
   <field>mass</field>
   <field>valence</field>
   <field type="string">pseudopotential</field>
   <set>
    <rc><c>   1</c><c>O </c><c>     16.00000000</c><c>      6.00000000</c><c> PAW_RPBE O 08Apr2002                   </c></rc>
   </set>
  </array>
 </atominfo>
 <structure name="initialpos" >
  <crystal>
   <varray name="basis" >
    <v>       8.00000000       0.00000000       0.00000000 </v>
    <v>       0.00000000       8.00000000       0.00000000 </v>
    <v>       0.00000000       0.00000000       8.00000000 </v>
   </varray>
   <i name="volume">    512.00000000 </i>
   <varray name="rec_basis" >
    <v>       0.12500000       0.00000000       0.00000000 </v>
    <v>       0.00000000       0.12500000       0.00000000 </v>
    <v>       0.00000000       0.00000000       0.12500000 </v>
   </varray>
  </crystal>
  <varray name="positions" >
   <v>       0.00000000       0.00000000       0.00000000 </v>
  </varray>
 </structure>
 <calculation>
  <scstep>
   <time name="dav">    0.08    0.07</time>
   <time name="total">    0.20    0.20</time>
   <energy>
    <i name="alphaZ">      0.27135287 </i>
    <i name="ewald">    -91.92708002 </i>
    <i name="hartreedc">   -281.84385691 </i>
    <i name="XCdc">     26.26291529 </i>
    <i name="pawpsdc">    245.86419871 </i>
    <i name="pawaedc">   -247.70903455 </i>
    <i name="eentropy">     -0.00011476 </i>
    <i name="bandstr">    -47.26865484 </i>
    <i name="atom">    432.26319604 </i>
    <i name="e_fr_energy">     35.91292182 </i>
    <i name="e_wo_entrp">     35.91303658 </i>
    <i name="e_0_energy">     35.91297920 </i>
   </energy>
  </scstep>
  <scstep>
   <time name="dav">    0.14    0.14</time>
   <time name="total">    0.14    0.15</time>
   <energy>
    <i name="e_fr_energy">     -0.58812443 </i>
    <i name="e_wo_entrp">     -0.44746616 </i>
    <i name="e_0_energy">     -0.51779529 </i>
   </energy>
  </scstep>
  <scstep>
   <time name="dav">    0.07    0.07</time>
   <time name="total">    0.07    0.08</time>
   <energy>
    <i name="e_fr_energy">     -1.26034215 </i>
    <i name="e_wo_entrp">     -1.10608006 </i>
    <i name="e_0_energy">     -1.18321110 </i>
   </energy>
  </scstep>
  <scstep>
   <time name="dav">    0.14    0.14</time>
   <time name="total">    0.14    0.15</time>
   <energy>
    <i name="e_fr_energy">     -1.26284785 </i>
    <i name="e_wo_entrp">     -1.10858553 </i>
    <i name="e_0_energy">     -1.18571669 </i>
   </energy>
  </scstep>
  <scstep>
   <time name="dav">    0.12    0.12</time>
   <time name="total">    0.17    0.17</time>
   <energy>
    <i name="e_fr_energy">     -1.26284794 </i>
    <i name="e_wo_entrp">     -1.10858562 </i>
    <i name="e_0_energy">     -1.18571678 </i>
   </energy>
  </scstep>
  <scstep>
   <time name="dav">    0.08    0.09</time>
   <time name="total">    0.22    0.23</time>
   <energy>
    <i name="e_fr_energy">      0.16161183 </i>
    <i name="e_wo_entrp">      0.31587414 </i>
    <i name="e_0_energy">      0.23874298 </i>
   </energy>
  </scstep>
  <scstep>
   <time name="dav">    0.09    0.09</time>
   <time name="total">    0.22    0.23</time>
   <energy>
    <i name="e_fr_energy">     -1.12854268 </i>
    <i name="e_wo_entrp">     -0.97428036 </i>
    <i name="e_0_energy">     -1.05141152 </i>
   </energy>
  </scstep>
  <scstep>
   <time name="dav">    0.07    0.07</time>
   <time name="total">    0.21    0.21</time>
   <energy>
    <i name="e_fr_energy">     -1.50139007 </i>
    <i name="e_wo_entrp">     -1.34712775 </i>
    <i name="e_0_energy">     -1.42425891 </i>
   </energy>
  </scstep>
  <scstep>
   <time name="dav">    0.09    0.09</time>
   <time name="total">    0.22    0.23</time>
   <energy>
    <i name="e_fr_energy">     -1.64795810 </i>
    <i name="e_wo_entrp">     -1.49369578 </i>
    <i name="e_0_energy">     -1.57082694 </i>
   </energy>
  </scstep>
  <scstep>
   <time name="dav">    0.07    0.07</time>
   <time name="total">    0.21    0.22</time>
   <energy>
    <i name="e_fr_energy">     -1.67187921 </i>
    <i name="e_wo_entrp">     -1.51761689 </i>
    <i name="e_0_energy">     -1.59474805 </i>
   </energy>
  </scstep>
  <scstep>
   <time name="dav">    0.07    0.07</time>
   <time name="total">    0.22    0.22</time>
   <energy>
    <i name="e_fr_energy">     -1.67260335 </i>
    <i name="e_wo_entrp">     -1.51834103 </i>
    <i name="e_0_energy">     -1.59547219 </i>
   </energy>
  </scstep>
  <scstep>
   <time name="dav">    0.07    0.07</time>
   <time name="total">    0.21    0.22</time>
   <energy>
    <i name="e_fr_energy">     -1.67298648 </i>
    <i name="e_wo_entrp">     -1.51872416 </i>
    <i name="e_0_energy">     -1.59585532 </i>
   </energy>
  </scstep>
  <scstep>
   <time name="dav">    0.11    0.11</time>
   <time name="total">    0.21    0.21</time>
   <energy>
    <i name="alphaZ">      0.27135287 </i>
    <i name="ewald">    -91.92708002 </i>
    <i name="hartreedc">   -282.89411859 </i>
    <i name="XCdc">     26.80427562 </i>
    <i name="pawpsdc">    250.97167051 </i>
    <i name="pawaedc">   -252.77354863 </i>
    <i name="eentropy">     -0.15426232 </i>
    <i name="bandstr">    -84.23450827 </i>
    <i name="atom">    432.26319604 </i>
    <i name="e_fr_energy">     -1.67302281 </i>
    <i name="e_wo_entrp">     -1.51876049 </i>
    <i name="e_0_energy">     -1.59589165 </i>
   </energy>
  </scstep>
  <structure>
   <crystal>
    <varray name="basis" >
     <v>       8.00000000       0.00000000       0.00000000 </v>
     <v>       0.00000000       8.00000000       0.00000000 </v>
     <v>       0.00000000       0.00000000       8.00000000 </v>
    </varray>
    <i name="volume">    512.00000000 </i>
    <varray name="rec_basis" >
     <v>       0.12500000       0.00000000       0.00000000 </v>
     <v>       0.00000000       0.12500000       0.00000000 </v>
     <v>       0.00000000       0.00000000       0.12500000 </v>
    </varray>
   </crystal>
   <varray name="positions" >
    <v>       0.00000000       0.00000000       0.00000000 </v>
   </varray>
  </structure>
  <varray name="forces" >
   <v>       0.00000000       0.00000000       0.00000000 </v>
  </varray>
  <varray name="stress" >
   <v>      -2.48591875       0.00000000      -0.00000000 </v>
   <v>       0.00000000      -2.48591875      -0.00000000 </v>
   <v>       0.00000000       0.00000000      -2.48591875 </v>
  </varray>
  <energy>
   <i name="e_fr_energy">     -1.67302281 </i>
   <i name="e_wo_entrp">     -1.59589165 </i>
   <i name="e_0_energy">     -0.15426232 </i>
  </energy>
  <time name="totalsc">    6.14    6.29</time>
  <eigenvalues>
   <array>
    <dimension dim="1">band</dimension>
    <dimension dim="2">kpoint</dimension>
    <dimension dim="3">spin</dimension>
    <field>eigene</field>
    <field>occ</field>
    <set>
     <set comment="spin 1">
      <set comment="kpoint 1">
       <r>  -25.0883    1.0000 </r>
       <r>  -10.0836    1.0000 </r>
       <r>  -10.0836    1.0000 </r>
       <r>  -10.0836    1.0000 </r>
       <r>   -0.5119    0.0000 </r>
       <r>    1.8102    0.0000 </r>
       <r>    1.8147    0.0000 </r>
       <r>    1.8147    0.0000 </r>
       <r>    1.8147    0.0000 </r>
       <r>    2.0417    0.0000 </r>
       <r>    2.0417    0.0000 </r>
       <r>    4.0076    0.0000 </r>
       <r>    4.0536    0.0000 </r>
       <r>    4.0536    0.0000 </r>
       <r>    4.0536    0.0000 </r>
       <r>    4.3867    0.0000 </r>
      </set>
     </set>
     <set comment="spin 2">
      <set comment="kpoint 1">
       <r>  -21.8404    1.0000 </r>
       <r>   -7.0550    0.3333 </r>
       <r>   -7.0550    0.3333 </r>
       <r>   -7.0550    0.3333 </r>
       <r>   -0.3333    0.0000 </r>
       <r>    2.0136    0.0000 </r>
       <r>    2.0136    0.0000 </r>
       <r>    2.0136    0.0000 </r>
       <r>    2.1217    0.0000 </r>
       <r>    2.1476    0.0000 </r>
       <r>    2.1476    0.0000 </r>
       <r>    4.1200    0.0000 </r>
       <r>    4.1200    0.0000 </r>
       <r>    4.1200    0.0000 </r>
       <r>    4.3597    0.0000 </r>
       <r>    4.3597    0.0000 </r>
      </set>
     </set>
    </set>
   </array>
  </eigenvalues>
  <separator name="orbital magnetization" >
   <v name="MAGDIPOLOUT">      0.00000000      0.00000000      0.00000000</v>
  </separator>
  <dos>
   <i name="efermi">     -7.11595610 </i>
   <total>
    <array>
     <dimension dim="1">gridpoints</dimension>
     <dimension dim="2">spin</dimension>
     <field>energy</field>
     <field>total</field>
     <field>integrated</field>
     <set>
      <set comment="spin 1">
       <r>   -27.0883     0.0000     0.0000 </r>
       <r>   -26.9768     0.0000     0.0000 </r>
       <r>   -26.8652     0.0000     0.0000 </r>
       <r>   -26.7536     0.0000     0.0000 </r>
       <r>   -26.6420     0.0000     0.0000 </r>
       <r>   -26.5304     0.0000     0.0000 </r>
       <r>   -26.4188     0.0000     0.0000 </r>
       <r>   -26.3073     0.0000     0.0000 </r>
       <r>   -26.1957     0.0000     0.0000 </r>
       <r>   -26.0841     0.0000     0.0000 </r>
       <r>   -25.9725     0.0000     0.0000 </r>
       <r>   -25.8609     0.0000     0.0000 </r>
       <r>   -25.7493     0.0000     0.0000 </r>
       <r>   -25.6378     0.0004     0.0001 </r>
       <r>   -25.5262     0.0083     0.0010 </r>
       <r>   -25.4146     0.0856     0.0105 </r>
       <r>   -25.3030     0.4839     0.0645 </r>
       <r>   -25.1914     1.5102     0.2330 </r>
       <r>   -25.0798     2.6074     0.5240 </r>
       <r>   -24.9683     2.4925     0.8021 </r>
       <r>   -24.8567     1.3192     0.9493 </r>
       <r>   -24.7451     0.3861     0.9924 </r>
       <r>   -24.6335     0.0624     0.9994 </r>
       <r>   -24.5219     0.0055     1.0000 </r>
       <r>   -24.4103     0.0003     1.0000 </r>
       <r>   -24.2988     0.0000     1.0000 </r>
       <r>   -24.1872     0.0000     1.0000 </r>
       <r>   -24.0756     0.0000     1.0000 </r>
       <r>   -23.9640     0.0000     1.0000 </r>
       <r>   -23.8524     0.0000     1.0000 </r>
       <r>   -23.7408     0.0000     1.0000 </r>
       <r>   -23.6293     0.0000     1.0000 </r>
       <r>   -23.5177     0.0000     1.0000 </r>
       <r>   -23.4061     0.0000     1.0000 </r>
       <r>   -23.2945     0.0000     1.0000 </r>
       <r>   -23.1829     0.0000     1.0000 </r>
       <r>   -23.0713     0.0000     1.0000 </r>
       <r>   -22.9598     0.0000     1.0000 </r>
       <r>   -22.8482     0.0000     1.0000 </r>
       <r>   -22.7366     0.0000     1.0000 </r>
       <r>   -22.6250     0.0000     1.0000 </r>
       <r>   -22.5134     0.0000     1.0000 </r>
       <r>   -22.4018     0.0000     1.0000 </r>
       <r>   -22.2902     0.0000     1.0000 </r>
       <r>   -22.1787     0.0000     1.0000 </r>
       <r>   -22.0671     0.0000     1.0000 </r>
       <r>   -21.9555     0.0000     1.0000 </r>
       <r>   -21.8439     0.0000     1.0000 </r>
       <r>   -21.7323     0.0000     1.0000 </r>
       <r>   -21.6207     0.0000     1.0000 </r>
       <r>   -21.5092     0.0000     1.0000 </r>
       <r>   -21.3976     0.0000     1.0000 </r>
       <r>   -21.2860     0.0000     1.0000 </r>
       <r>   -21.1744     0.0000     1.0000 </r>
       <r>   -21.0628     0.0000     1.0000 </r>
       <r>   -20.9512     0.0000     1.0000 </r>
       <r>   -20.8397     0.0000     1.0000 </r>
       <r>   -20.7281     0.0000     1.0000 </r>
       <r>   -20.6165     0.0000     1.0000 </r>
       <r>   -20.5049     0.0000     1.0000 </r>
       <r>   -20.3933     0.0000     1.0000 </r>
       <r>   -20.2817     0.0000     1.0000 </r>
       <r>   -20.1702     0.0000     1.0000 </r>
       <r>   -20.0586     0.0000     1.0000 </r>
       <r>   -19.9470     0.0000     1.0000 </r>
       <r>   -19.8354     0.0000     1.0000 </r>
       <r>   -19.7238     0.0000     1.0000 </r>
       <r>   -19.6122     0.0000     1.0000 </r>
       <r>   -19.5007     0.0000     1.0000 </r>
       <r>   -19.3891     0.0000     1.0000 </r>
       <r>   -19.2775     0.0000     1.0000 </r>
       <r>   -19.1659     0.0000     1.0000 </r>
       <r>   -19.0543     0.0000     1.0000 </r>
       <r>   -18.9427     0.0000     1.0000 </r>
       <r>   -18.8312     0.0000     1.0000 </r>
       <r>   -18.7196     0.0000     1.0000 </r>
       <r>   -18.6080     0.0000     1.0000 </r>
       <r>   -18.4964     0.0000     1.0000 </r>
       <r>   -18.3848     0.0000     1.0000 </r>
       <r>   -18.2732     0.0000     1.0000 </r>
       <r>   -18.1617     0.0000     1.0000 </r>
       <r>   -18.0501     0.0000     1.0000 </r>
       <r>   -17.9385     0.0000     1.0000 </r>
       <r>   -17.8269     0.0000     1.0000 </r>
       <r>   -17.7153     0.0000     1.0000 </r>
       <r>   -17.6037     0.0000     1.0000 </r>
       <r>   -17.4922     0.0000     1.0000 </r>
       <r>   -17.3806     0.0000     1.0000 </r>
       <r>   -17.2690     0.0000     1.0000 </r>
       <r>   -17.1574     0.0000     1.0000 </r>
       <r>   -17.0458     0.0000     1.0000 </r>
       <r>   -16.9342     0.0000     1.0000 </r>
       <r>   -16.8227     0.0000     1.0000 </r>
       <r>   -16.7111     0.0000     1.0000 </r>
       <r>   -16.5995     0.0000     1.0000 </r>
       <r>   -16.4879     0.0000     1.0000 </r>
       <r>   -16.3763     0.0000     1.0000 </r>
       <r>   -16.2647     0.0000     1.0000 </r>
       <r>   -16.1532     0.0000     1.0000 </r>
       <r>   -16.0416     0.0000     1.0000 </r>
       <r>   -15.9300     0.0000     1.0000 </r>
       <r>   -15.8184     0.0000     1.0000 </r>
       <r>   -15.7068     0.0000     1.0000 </r>
       <r>   -15.5952     0.0000     1.0000 </r>
       <r>   -15.4837     0.0000     1.0000 </r>
       <r>   -15.3721     0.0000     1.0000 </r>
       <r>   -15.2605     0.0000     1.0000 </r>
       <r>   -15.1489     0.0000     1.0000 </r>
       <r>   -15.0373     0.0000     1.0000 </r>
       <r>   -14.9257     0.0000     1.0000 </r>
       <r>   -14.8142     0.0000     1.0000 </r>
       <r>   -14.7026     0.0000     1.0000 </r>
       <r>   -14.5910     0.0000     1.0000 </r>
       <r>   -14.4794     0.0000     1.0000 </r>
       <r>   -14.3678     0.0000     1.0000 </r>
       <r>   -14.2562     0.0000     1.0000 </r>
       <r>   -14.1447     0.0000     1.0000 </r>
       <r>   -14.0331     0.0000     1.0000 </r>
       <r>   -13.9215     0.0000     1.0000 </r>
       <r>   -13.8099     0.0000     1.0000 </r>
       <r>   -13.6983     0.0000     1.0000 </r>
       <r>   -13.5867     0.0000     1.0000 </r>
       <r>   -13.4752     0.0000     1.0000 </r>
       <r>   -13.3636     0.0000     1.0000 </r>
       <r>   -13.2520     0.0000     1.0000 </r>
       <r>   -13.1404     0.0000     1.0000 </r>
       <r>   -13.0288     0.0000     1.0000 </r>
       <r>   -12.9172     0.0000     1.0000 </r>
       <r>   -12.8057     0.0000     1.0000 </r>
       <r>   -12.6941     0.0000     1.0000 </r>
       <r>   -12.5825     0.0000     1.0000 </r>
       <r>   -12.4709     0.0000     1.0000 </r>
       <r>   -12.3593     0.0000     1.0000 </r>
       <r>   -12.2477     0.0000     1.0000 </r>
       <r>   -12.1361     0.0000     1.0000 </r>
       <r>   -12.0246     0.0000     1.0000 </r>
       <r>   -11.9130     0.0000     1.0000 </r>
       <r>   -11.8014     0.0000     1.0000 </r>
       <r>   -11.6898     0.0000     1.0000 </r>
       <r>   -11.5782     0.0000     1.0000 </r>
       <r>   -11.4666     0.0000     1.0000 </r>
       <r>   -11.3551     0.0000     1.0000 </r>
       <r>   -11.2435     0.0000     1.0000 </r>
       <r>   -11.1319     0.0000     1.0000 </r>
       <r>   -11.0203     0.0000     1.0000 </r>
       <r>   -10.9087     0.0000     1.0000 </r>
       <r>   -10.7971     0.0000     1.0000 </r>
       <r>   -10.6856     0.0003     1.0000 </r>
       <r>   -10.5740     0.0068     1.0008 </r>
       <r>   -10.4624     0.0923     1.0111 </r>
       <r>   -10.3508     0.6910     1.0882 </r>
       <r>   -10.2392     2.8529     1.4065 </r>
       <r>   -10.1276     6.5097     2.1329 </r>
       <r>   -10.0161     8.2216     3.0503 </r>
       <r>    -9.9045     5.7501     3.6919 </r>
       <r>    -9.7929     2.2255     3.9402 </r>
       <r>    -9.6813     0.4758     3.9933 </r>
       <r>    -9.5697     0.0561     3.9996 </r>
       <r>    -9.4581     0.0036     4.0000 </r>
       <r>    -9.3466     0.0001     4.0000 </r>
       <r>    -9.2350     0.0000     4.0000 </r>
       <r>    -9.1234     0.0000     4.0000 </r>
       <r>    -9.0118     0.0000     4.0000 </r>
       <r>    -8.9002     0.0000     4.0000 </r>
       <r>    -8.7886     0.0000     4.0000 </r>
       <r>    -8.6771     0.0000     4.0000 </r>
       <r>    -8.5655     0.0000     4.0000 </r>
       <r>    -8.4539     0.0000     4.0000 </r>
       <r>    -8.3423     0.0000     4.0000 </r>
       <r>    -8.2307     0.0000     4.0000 </r>
       <r>    -8.1191     0.0000     4.0000 </r>
       <r>    -8.0076     0.0000     4.0000 </r>
       <r>    -7.8960     0.0000     4.0000 </r>
       <r>    -7.7844     0.0000     4.0000 </r>
       <r>    -7.6728     0.0000     4.0000 </r>
       <r>    -7.5612     0.0000     4.0000 </r>
       <r>    -7.4496     0.0000     4.0000 </r>
       <r>    -7.3381     0.0000     4.0000 </r>
       <r>    -7.2265     0.0000     4.0000 </r>
       <r>    -7.1149     0.0000     4.0000 </r>
       <r>    -7.0033     0.0000     4.0000 </r>
       <r>    -6.8917     0.0000     4.0000 </r>
       <r>    -6.7801     0.0000     4.0000 </r>
       <r>    -6.6686     0.0000     4.0000 </r>
       <r>    -6.5570     0.0000     4.0000 </r>
       <r>    -6.4454     0.0000     4.0000 </r>
       <r>    -6.3338     0.0000     4.0000 </r>
       <r>    -6.2222     0.0000     4.0000 </r>
       <r>    -6.1106     0.0000     4.0000 </r>
       <r>    -5.9991     0.0000     4.0000 </r>
       <r>    -5.8875     0.0000     4.0000 </r>
       <r>    -5.7759     0.0000     4.0000 </r>
       <r>    -5.6643     0.0000     4.0000 </r>
       <r>    -5.5527     0.0000     4.0000 </r>
       <r>    -5.4411     0.0000     4.0000 </r>
       <r>    -5.3296     0.0000     4.0000 </r>
       <r>    -5.2180     0.0000     4.0000 </r>
       <r>    -5.1064     0.0000     4.0000 </r>
       <r>    -4.9948     0.0000     4.0000 </r>
       <r>    -4.8832     0.0000     4.0000 </r>
       <r>    -4.7716     0.0000     4.0000 </r>
       <r>    -4.6601     0.0000     4.0000 </r>
       <r>    -4.5485     0.0000     4.0000 </r>
       <r>    -4.4369     0.0000     4.0000 </r>
       <r>    -4.3253     0.0000     4.0000 </r>
       <r>    -4.2137     0.0000     4.0000 </r>
       <r>    -4.1021     0.0000     4.0000 </r>
       <r>    -3.9906     0.0000     4.0000 </r>
       <r>    -3.8790     0.0000     4.0000 </r>
       <r>    -3.7674     0.0000     4.0000 </r>
       <r>    -3.6558     0.0000     4.0000 </r>
       <r>    -3.5442     0.0000     4.0000 </r>
       <r>    -3.4326     0.0000     4.0000 </r>
       <r>    -3.3211     0.0000     4.0000 </r>
       <r>    -3.2095     0.0000     4.0000 </r>
       <r>    -3.0979     0.0000     4.0000 </r>
       <r>    -2.9863     0.0000     4.0000 </r>
       <r>    -2.8747     0.0000     4.0000 </r>
       <r>    -2.7631     0.0000     4.0000 </r>
       <r>    -2.6515     0.0000     4.0000 </r>
       <r>    -2.5400     0.0000     4.0000 </r>
       <r>    -2.4284     0.0000     4.0000 </r>
       <r>    -2.3168     0.0000     4.0000 </r>
       <r>    -2.2052     0.0000     4.0000 </r>
       <r>    -2.0936     0.0000     4.0000 </r>
       <r>    -1.9820     0.0000     4.0000 </r>
       <r>    -1.8705     0.0000     4.0000 </r>
       <r>    -1.7589     0.0000     4.0000 </r>
       <r>    -1.6473     0.0000     4.0000 </r>
       <r>    -1.5357     0.0000     4.0000 </r>
       <r>    -1.4241     0.0000     4.0000 </r>
       <r>    -1.3125     0.0000     4.0000 </r>
       <r>    -1.2010     0.0000     4.0000 </r>
       <r>    -1.0894     0.0002     4.0000 </r>
       <r>    -0.9778     0.0042     4.0005 </r>
       <r>    -0.8662     0.0503     4.0061 </r>
       <r>    -0.7546     0.3308     4.0430 </r>
       <r>    -0.6430     1.1988     4.1768 </r>
       <r>    -0.5315     2.4024     4.4449 </r>
       <r>    -0.4199     2.6653     4.7423 </r>
       <r>    -0.3083     1.6374     4.9250 </r>
       <r>    -0.1967     0.5565     4.9871 </r>
       <r>    -0.0851     0.1044     4.9987 </r>
       <r>     0.0265     0.0108     4.9999 </r>
       <r>     0.1380     0.0006     5.0000 </r>
       <r>     0.2496     0.0000     5.0000 </r>
       <r>     0.3612     0.0000     5.0000 </r>
       <r>     0.4728     0.0000     5.0000 </r>
       <r>     0.5844     0.0000     5.0000 </r>
       <r>     0.6960     0.0000     5.0000 </r>
       <r>     0.8075     0.0000     5.0000 </r>
       <r>     0.9191     0.0000     5.0000 </r>
       <r>     1.0307     0.0000     5.0000 </r>
       <r>     1.1423     0.0000     5.0000 </r>
       <r>     1.2539     0.0013     5.0002 </r>
       <r>     1.3655     0.0261     5.0031 </r>
       <r>     1.4770     0.2840     5.0348 </r>
       <r>     1.5886     1.7039     5.2249 </r>
       <r>     1.7002     5.7060     5.8616 </r>
       <r>     1.8118    10.9568     7.0842 </r>
       <r>     1.9234    12.9384     8.5279 </r>
       <r>     2.0350    10.7468     9.7271 </r>
       <r>     2.1465     6.9668    10.5044 </r>
       <r>     2.2581     3.2828    10.8707 </r>
       <r>     2.3697     0.9743    10.9795 </r>
       <r>     2.4813     0.1672    10.9981 </r>
       <r>     2.5929     0.0160    10.9999 </r>
       <r>     2.7045     0.0008    11.0000 </r>
       <r>     2.8160     0.0000    11.0000 </r>
       <r>     2.9276     0.0000    11.0000 </r>
       <r>     3.0392     0.0000    11.0000 </r>
       <r>     3.1508     0.0000    11.0000 </r>
       <r>     3.2624     0.0000    11.0000 </r>
       <r>     3.3740     0.0001    11.0000 </r>
       <r>     3.4855     0.0017    11.0002 </r>
       <r>     3.5971     0.0316    11.0037 </r>
       <r>     3.7087     0.3196    11.0394 </r>
       <r>     3.8203     1.8086    11.2412 </r>
       <r>     3.9319     5.7331    11.8809 </r>
       <r>     4.0435    10.2261    13.0220 </r>
       <r>     4.1550    10.4890    14.1924 </r>
       <r>     4.2666     6.9370    14.9664 </r>
       <r>     4.3782     4.2357    15.4391 </r>
       <r>     4.4898     2.9082    15.7636 </r>
       <r>     4.6014     1.5390    15.9353 </r>
       <r>     4.7130     0.4854    15.9895 </r>
       <r>     4.8245     0.0856    15.9990 </r>
       <r>     4.9361     0.0083    15.9999 </r>
       <r>     5.0477     0.0004    16.0000 </r>
       <r>     5.1593     0.0000    16.0000 </r>
       <r>     5.2709     0.0000    16.0000 </r>
       <r>     5.3825     0.0000    16.0000 </r>
       <r>     5.4940     0.0000    16.0000 </r>
       <r>     5.6056     0.0000    16.0000 </r>
       <r>     5.7172     0.0000    16.0000 </r>
       <r>     5.8288     0.0000    16.0000 </r>
       <r>     5.9404     0.0000    16.0000 </r>
       <r>     6.0520     0.0000    16.0000 </r>
       <r>     6.1635     0.0000    16.0000 </r>
       <r>     6.2751     0.0000    16.0000 </r>
       <r>     6.3867     0.0000    16.0000 </r>
      </set>
      <set comment="spin 2">
       <r>   -27.0883     0.0000     0.0000 </r>
       <r>   -26.9768     0.0000     0.0000 </r>
       <r>   -26.8652     0.0000     0.0000 </r>
       <r>   -26.7536     0.0000     0.0000 </r>
       <r>   -26.6420     0.0000     0.0000 </r>
       <r>   -26.5304     0.0000     0.0000 </r>
       <r>   -26.4188     0.0000     0.0000 </r>
       <r>   -26.3073     0.0000     0.0000 </r>
       <r>   -26.1957     0.0000     0.0000 </r>
       <r>   -26.0841     0.0000     0.0000 </r>
       <r>   -25.9725     0.0000     0.0000 </r>
       <r>   -25.8609     0.0000     0.0000 </r>
       <r>   -25.7493     0.0000     0.0000 </r>
       <r>   -25.6378     0.0000     0.0000 </r>
       <r>   -25.5262     0.0000     0.0000 </r>
       <r>   -25.4146     0.0000     0.0000 </r>
       <r>   -25.3030     0.0000     0.0000 </r>
       <r>   -25.1914     0.0000     0.0000 </r>
       <r>   -25.0798     0.0000     0.0000 </r>
       <r>   -24.9683     0.0000     0.0000 </r>
       <r>   -24.8567     0.0000     0.0000 </r>
       <r>   -24.7451     0.0000     0.0000 </r>
       <r>   -24.6335     0.0000     0.0000 </r>
       <r>   -24.5219     0.0000     0.0000 </r>
       <r>   -24.4103     0.0000     0.0000 </r>
       <r>   -24.2988     0.0000     0.0000 </r>
       <r>   -24.1872     0.0000     0.0000 </r>
       <r>   -24.0756     0.0000     0.0000 </r>
       <r>   -23.9640     0.0000     0.0000 </r>
       <r>   -23.8524     0.0000     0.0000 </r>
       <r>   -23.7408     0.0000     0.0000 </r>
       <r>   -23.6293     0.0000     0.0000 </r>
       <r>   -23.5177     0.0000     0.0000 </r>
       <r>   -23.4061     0.0000     0.0000 </r>
       <r>   -23.2945     0.0000     0.0000 </r>
       <r>   -23.1829     0.0000     0.0000 </r>
       <r>   -23.0713     0.0000     0.0000 </r>
       <r>   -22.9598     0.0000     0.0000 </r>
       <r>   -22.8482     0.0000     0.0000 </r>
       <r>   -22.7366     0.0000     0.0000 </r>
       <r>   -22.6250     0.0000     0.0000 </r>
       <r>   -22.5134     0.0000     0.0000 </r>
       <r>   -22.4018     0.0003     0.0000 </r>
       <r>   -22.2902     0.0063     0.0007 </r>
       <r>   -22.1787     0.0686     0.0084 </r>
       <r>   -22.0671     0.4133     0.0545 </r>
       <r>   -21.9555     1.3749     0.2079 </r>
       <r>   -21.8439     2.5295     0.4902 </r>
       <r>   -21.7323     2.5766     0.7777 </r>
       <r>   -21.6207     1.4532     0.9398 </r>
       <r>   -21.5092     0.4533     0.9904 </r>
       <r>   -21.3976     0.0781     0.9991 </r>
       <r>   -21.2860     0.0074     1.0000 </r>
       <r>   -21.1744     0.0004     1.0000 </r>
       <r>   -21.0628     0.0000     1.0000 </r>
       <r>   -20.9512     0.0000     1.0000 </r>
       <r>   -20.8397     0.0000     1.0000 </r>
       <r>   -20.7281     0.0000     1.0000 </r>
       <r>   -20.6165     0.0000     1.0000 </r>
       <r>   -20.5049     0.0000     1.0000 </r>
       <r>   -20.3933     0.0000     1.0000 </r>
       <r>   -20.2817     0.0000     1.0000 </r>
       <r>   -20.1702     0.0000     1.0000 </r>
       <r>   -20.0586     0.0000     1.0000 </r>
       <r>   -19.9470     0.0000     1.0000 </r>
       <r>   -19.8354     0.0000     1.0000 </r>
       <r>   -19.7238     0.0000     1.0000 </r>
       <r>   -19.6122     0.0000     1.0000 </r>
       <r>   -19.5007     0.0000     1.0000 </r>
       <r>   -19.3891     0.0000     1.0000 </r>
       <r>   -19.2775     0.0000     1.0000 </r>
       <r>   -19.1659     0.0000     1.0000 </r>
       <r>   -19.0543     0.0000     1.0000 </r>
       <r>   -18.9427     0.0000     1.0000 </r>
       <r>   -18.8312     0.0000     1.0000 </r>
       <r>   -18.7196     0.0000     1.0000 </r>
       <r>   -18.6080     0.0000     1.0000 </r>
       <r>   -18.4964     0.0000     1.0000 </r>
       <r>   -18.3848     0.0000     1.0000 </r>
       <r>   -18.2732     0.0000     1.0000 </r>
       <r>   -18.1617     0.0000     1.0000 </r>
       <r>   -18.0501     0.0000     1.0000 </r>
       <r>   -17.9385     0.0000     1.0000 </r>
       <r>   -17.8269     0.0000     1.0000 </r>
       <r>   -17.7153     0.0000     1.0000 </r>
       <r>   -17.6037     0.0000     1.0000 </r>
       <r>   -17.4922     0.0000     1.0000 </r>
       <r>   -17.3806     0.0000     1.0000 </r>
       <r>   -17.2690     0.0000     1.0000 </r>
       <r>   -17.1574     0.0000     1.0000 </r>
       <r>   -17.0458     0.0000     1.0000 </r>
       <r>   -16.9342     0.0000     1.0000 </r>
       <r>   -16.8227     0.0000     1.0000 </r>
       <r>   -16.7111     0.0000     1.0000 </r>
       <r>   -16.5995     0.0000     1.0000 </r>
       <r>   -16.4879     0.0000     1.0000 </r>
       <r>   -16.3763     0.0000     1.0000 </r>
       <r>   -16.2647     0.0000     1.0000 </r>
       <r>   -16.1532     0.0000     1.0000 </r>
       <r>   -16.0416     0.0000     1.0000 </r>
       <r>   -15.9300     0.0000     1.0000 </r>
       <r>   -15.8184     0.0000     1.0000 </r>
       <r>   -15.7068     0.0000     1.0000 </r>
       <r>   -15.5952     0.0000     1.0000 </r>
       <r>   -15.4837     0.0000     1.0000 </r>
       <r>   -15.3721     0.0000     1.0000 </r>
       <r>   -15.2605     0.0000     1.0000 </r>
       <r>   -15.1489     0.0000     1.0000 </r>
       <r>   -15.0373     0.0000     1.0000 </r>
       <r>   -14.9257     0.0000     1.0000 </r>
       <r>   -14.8142     0.0000     1.0000 </r>
       <r>   -14.7026     0.0000     1.0000 </r>
       <r>   -14.5910     0.0000     1.0000 </r>
       <r>   -14.4794     0.0000     1.0000 </r>
       <r>   -14.3678     0.0000     1.0000 </r>
       <r>   -14.2562     0.0000     1.0000 </r>
       <r>   -14.1447     0.0000     1.0000 </r>
       <r>   -14.0331     0.0000     1.0000 </r>
       <r>   -13.9215     0.0000     1.0000 </r>
       <r>   -13.8099     0.0000     1.0000 </r>
       <r>   -13.6983     0.0000     1.0000 </r>
       <r>   -13.5867     0.0000     1.0000 </r>
       <r>   -13.4752     0.0000     1.0000 </r>
       <r>   -13.3636     0.0000     1.0000 </r>
       <r>   -13.2520     0.0000     1.0000 </r>
       <r>   -13.1404     0.0000     1.0000 </r>
       <r>   -13.0288     0.0000     1.0000 </r>
       <r>   -12.9172     0.0000     1.0000 </r>
       <r>   -12.8057     0.0000     1.0000 </r>
       <r>   -12.6941     0.0000     1.0000 </r>
       <r>   -12.5825     0.0000     1.0000 </r>
       <r>   -12.4709     0.0000     1.0000 </r>
       <r>   -12.3593     0.0000     1.0000 </r>
       <r>   -12.2477     0.0000     1.0000 </r>
       <r>   -12.1361     0.0000     1.0000 </r>
       <r>   -12.0246     0.0000     1.0000 </r>
       <r>   -11.9130     0.0000     1.0000 </r>
       <r>   -11.8014     0.0000     1.0000 </r>
       <r>   -11.6898     0.0000     1.0000 </r>
       <r>   -11.5782     0.0000     1.0000 </r>
       <r>   -11.4666     0.0000     1.0000 </r>
       <r>   -11.3551     0.0000     1.0000 </r>
       <r>   -11.2435     0.0000     1.0000 </r>
       <r>   -11.1319     0.0000     1.0000 </r>
       <r>   -11.0203     0.0000     1.0000 </r>
       <r>   -10.9087     0.0000     1.0000 </r>
       <r>   -10.7971     0.0000     1.0000 </r>
       <r>   -10.6856     0.0000     1.0000 </r>
       <r>   -10.5740     0.0000     1.0000 </r>
       <r>   -10.4624     0.0000     1.0000 </r>
       <r>   -10.3508     0.0000     1.0000 </r>
       <r>   -10.2392     0.0000     1.0000 </r>
       <r>   -10.1276     0.0000     1.0000 </r>
       <r>   -10.0161     0.0000     1.0000 </r>
       <r>    -9.9045     0.0000     1.0000 </r>
       <r>    -9.7929     0.0000     1.0000 </r>
       <r>    -9.6813     0.0000     1.0000 </r>
       <r>    -9.5697     0.0000     1.0000 </r>
       <r>    -9.4581     0.0000     1.0000 </r>
       <r>    -9.3466     0.0000     1.0000 </r>
       <r>    -9.2350     0.0000     1.0000 </r>
       <r>    -9.1234     0.0000     1.0000 </r>
       <r>    -9.0118     0.0000     1.0000 </r>
       <r>    -8.9002     0.0000     1.0000 </r>
       <r>    -8.7886     0.0000     1.0000 </r>
       <r>    -8.6771     0.0000     1.0000 </r>
       <r>    -8.5655     0.0000     1.0000 </r>
       <r>    -8.4539     0.0000     1.0000 </r>
       <r>    -8.3423     0.0000     1.0000 </r>
       <r>    -8.2307     0.0000     1.0000 </r>
       <r>    -8.1191     0.0000     1.0000 </r>
       <r>    -8.0076     0.0000     1.0000 </r>
       <r>    -7.8960     0.0000     1.0000 </r>
       <r>    -7.7844     0.0000     1.0000 </r>
       <r>    -7.6728     0.0002     1.0000 </r>
       <r>    -7.5612     0.0045     1.0005 </r>
       <r>    -7.4496     0.0662     1.0079 </r>
       <r>    -7.3381     0.5391     1.0681 </r>
       <r>    -7.2265     2.4206     1.3381 </r>
       <r>    -7.1149     6.0052     2.0082 </r>
       <r>    -7.0033     8.2451     2.9283 </r>
       <r>    -6.8917     6.2689     3.6278 </r>
       <r>    -6.7801     2.6381     3.9221 </r>
       <r>    -6.6686     0.6135     3.9906 </r>
       <r>    -6.5570     0.0786     3.9994 </r>
       <r>    -6.4454     0.0055     4.0000 </r>
       <r>    -6.3338     0.0002     4.0000 </r>
       <r>    -6.2222     0.0000     4.0000 </r>
       <r>    -6.1106     0.0000     4.0000 </r>
       <r>    -5.9991     0.0000     4.0000 </r>
       <r>    -5.8875     0.0000     4.0000 </r>
       <r>    -5.7759     0.0000     4.0000 </r>
       <r>    -5.6643     0.0000     4.0000 </r>
       <r>    -5.5527     0.0000     4.0000 </r>
       <r>    -5.4411     0.0000     4.0000 </r>
       <r>    -5.3296     0.0000     4.0000 </r>
       <r>    -5.2180     0.0000     4.0000 </r>
       <r>    -5.1064     0.0000     4.0000 </r>
       <r>    -4.9948     0.0000     4.0000 </r>
       <r>    -4.8832     0.0000     4.0000 </r>
       <r>    -4.7716     0.0000     4.0000 </r>
       <r>    -4.6601     0.0000     4.0000 </r>
       <r>    -4.5485     0.0000     4.0000 </r>
       <r>    -4.4369     0.0000     4.0000 </r>
       <r>    -4.3253     0.0000     4.0000 </r>
       <r>    -4.2137     0.0000     4.0000 </r>
       <r>    -4.1021     0.0000     4.0000 </r>
       <r>    -3.9906     0.0000     4.0000 </r>
       <r>    -3.8790     0.0000     4.0000 </r>
       <r>    -3.7674     0.0000     4.0000 </r>
       <r>    -3.6558     0.0000     4.0000 </r>
       <r>    -3.5442     0.0000     4.0000 </r>
       <r>    -3.4326     0.0000     4.0000 </r>
       <r>    -3.3211     0.0000     4.0000 </r>
       <r>    -3.2095     0.0000     4.0000 </r>
       <r>    -3.0979     0.0000     4.0000 </r>
       <r>    -2.9863     0.0000     4.0000 </r>
       <r>    -2.8747     0.0000     4.0000 </r>
       <r>    -2.7631     0.0000     4.0000 </r>
       <r>    -2.6515     0.0000     4.0000 </r>
       <r>    -2.5400     0.0000     4.0000 </r>
       <r>    -2.4284     0.0000     4.0000 </r>
       <r>    -2.3168     0.0000     4.0000 </r>
       <r>    -2.2052     0.0000     4.0000 </r>
       <r>    -2.0936     0.0000     4.0000 </r>
       <r>    -1.9820     0.0000     4.0000 </r>
       <r>    -1.8705     0.0000     4.0000 </r>
       <r>    -1.7589     0.0000     4.0000 </r>
       <r>    -1.6473     0.0000     4.0000 </r>
       <r>    -1.5357     0.0000     4.0000 </r>
       <r>    -1.4241     0.0000     4.0000 </r>
       <r>    -1.3125     0.0000     4.0000 </r>
       <r>    -1.2010     0.0000     4.0000 </r>
       <r>    -1.0894     0.0000     4.0000 </r>
       <r>    -0.9778     0.0000     4.0000 </r>
       <r>    -0.8662     0.0007     4.0001 </r>
       <r>    -0.7546     0.0122     4.0014 </r>
       <r>    -0.6430     0.1148     4.0142 </r>
       <r>    -0.5315     0.5943     4.0806 </r>
       <r>    -0.4199     1.6992     4.2702 </r>
       <r>    -0.3083     2.6882     4.5701 </r>
       <r>    -0.1967     2.3550     4.8329 </r>
       <r>    -0.0851     1.1421     4.9603 </r>
       <r>     0.0265     0.3062     4.9945 </r>
       <r>     0.1380     0.0453     4.9996 </r>
       <r>     0.2496     0.0037     5.0000 </r>
       <r>     0.3612     0.0002     5.0000 </r>
       <r>     0.4728     0.0000     5.0000 </r>
       <r>     0.5844     0.0000     5.0000 </r>
       <r>     0.6960     0.0000     5.0000 </r>
       <r>     0.8075     0.0000     5.0000 </r>
       <r>     0.9191     0.0000     5.0000 </r>
       <r>     1.0307     0.0000     5.0000 </r>
       <r>     1.1423     0.0000     5.0000 </r>
       <r>     1.2539     0.0000     5.0000 </r>
       <r>     1.3655     0.0001     5.0000 </r>
       <r>     1.4770     0.0020     5.0002 </r>
       <r>     1.5886     0.0351     5.0041 </r>
       <r>     1.7002     0.3488     5.0431 </r>
       <r>     1.8118     1.9646     5.2623 </r>
       <r>     1.9234     6.4209     5.9788 </r>
       <r>     2.0350    12.5213     7.3759 </r>
       <r>     2.1465    14.9410     9.0431 </r>
       <r>     2.2581    11.0175    10.2725 </r>
       <r>     2.3697     4.9630    10.8263 </r>
       <r>     2.4813     1.3311    10.9748 </r>
       <r>     2.5929     0.2068    10.9979 </r>
       <r>     2.7045     0.0182    10.9999 </r>
       <r>     2.8160     0.0009    11.0000 </r>
       <r>     2.9276     0.0000    11.0000 </r>
       <r>     3.0392     0.0000    11.0000 </r>
       <r>     3.1508     0.0000    11.0000 </r>
       <r>     3.2624     0.0000    11.0000 </r>
       <r>     3.3740     0.0000    11.0000 </r>
       <r>     3.4855     0.0001    11.0000 </r>
       <r>     3.5971     0.0028    11.0003 </r>
       <r>     3.7087     0.0460    11.0055 </r>
       <r>     3.8203     0.4107    11.0513 </r>
       <r>     3.9319     2.0302    11.2778 </r>
       <r>     4.0435     5.6497    11.9082 </r>
       <r>     4.1550     9.2627    12.9418 </r>
       <r>     4.2666    10.0294    14.0609 </r>
       <r>     4.3782     8.4369    15.0023 </r>
       <r>     4.4898     5.6157    15.6290 </r>
       <r>     4.6014     2.5323    15.9115 </r>
       <r>     4.7130     0.6806    15.9875 </r>
       <r>     4.8245     0.1033    15.9990 </r>
       <r>     4.9361     0.0087    16.0000 </r>
       <r>     5.0477     0.0004    16.0000 </r>
       <r>     5.1593     0.0000    16.0000 </r>
       <r>     5.2709     0.0000    16.0000 </r>
       <r>     5.3825     0.0000    16.0000 </r>
       <r>     5.4940     0.0000    16.0000 </r>
       <r>     5.6056     0.0000    16.0000 </r>
       <r>     5.7172     0.0000    16.0000 </r>
       <r>     5.8288     0.0000    16.0000 </r>
       <r>     5.9404     0.0000    16.0000 </r>
       <r>     6.0520     0.0000    16.0000 </r>
       <r>     6.1635     0.0000    16.0000 </r>
       <r>     6.2751     0.0000    16.0000 </r>
       <r>     6.3867     0.0000    16.0000 </r>
      </set>
     </set>
    </array>
   </total>
  </dos>
 </calculation>
 <structure name="finalpos" >
  <crystal>
   <varray name="basis" >
    <v>       8.00000000       0.00000000       0.00000000 </v>
    <v>       0.00000000       8.00000000       0.00000000 </v>
    <v>       0.00000000       0.00000000       8.00000000 </v>
   </varray>
   <i name="volume">    512.00000000 </i>
   <varray name="rec_basis" >
    <v>       0.12500000       0.00000000       0.00000000 </v>
    <v>       0.00000000       0.12500000       0.00000000 </v>
    <v>       0.00000000       0.00000000       0.12500000 </v>
   </varray>
  </crystal>
  <varray name="positions" >
   <v>       0.00000000       0.00000000       0.00000000 </v>
  </varray>
 </structure>
</modeling>
