   3   3   0   0
  0.1667104E+03  0.7937700E-09  0.7937700E-09  0.7937700E-09  0.2000000E-16
  1.000000000000000E-004
  CAR 
 H2O vibration                           
      6.07140032    -27.21698422  301     -6.02251251      1.00000000
    -27.217  0.0000E+00  0.0000E+00
    -27.106  0.0000E+00  0.0000E+00
    -26.995  0.0000E+00  0.0000E+00
    -26.884  0.0000E+00  0.0000E+00
    -26.773  0.0000E+00  0.0000E+00
    -26.662  0.0000E+00  0.0000E+00
    -26.551  0.0000E+00  0.0000E+00
    -26.440  0.0000E+00  0.0000E+00
    -26.329  0.3302E-13  0.3664E-14
    -26.218  0.1290E-10  0.1435E-11
    -26.107  0.2740E-08  0.3054E-09
    -25.996  0.3181E-06  0.3560E-07
    -25.885  0.2024E-04  0.2281E-05
    -25.774  0.7072E-03  0.8076E-04
    -25.664  0.1361E-01  0.1591E-02
    -25.553  0.1447E+00  0.1765E-01
    -25.442  0.8523E+00  0.1122E+00
    -25.331  0.2788E+01  0.4216E+00
    -25.220  0.5076E+01  0.9848E+00
    -25.109  0.5148E+01  0.1556E+01
    -24.998  0.2910E+01  0.1879E+01
    -24.887  0.9152E+00  0.1980E+01
    -24.776  0.1599E+00  0.1998E+01
    -24.665  0.1548E-01  0.2000E+01
    -24.554  0.8279E-03  0.2000E+01
    -24.443  0.2439E-04  0.2000E+01
    -24.332  0.3947E-06  0.2000E+01
    -24.221  0.3501E-08  0.2000E+01
    -24.110  0.1698E-10  0.2000E+01
    -23.999  0.4402E-13  0.2000E+01
    -23.888  0.0000E+00  0.2000E+01
    -23.777  0.0000E+00  0.2000E+01
    -23.666  0.0000E+00  0.2000E+01
    -23.555  0.0000E+00  0.2000E+01
    -23.444  0.0000E+00  0.2000E+01
    -23.333  0.0000E+00  0.2000E+01
    -23.222  0.0000E+00  0.2000E+01
    -23.111  0.0000E+00  0.2000E+01
    -23.000  0.0000E+00  0.2000E+01
    -22.889  0.0000E+00  0.2000E+01
    -22.779  0.0000E+00  0.2000E+01
    -22.668  0.0000E+00  0.2000E+01
    -22.557  0.0000E+00  0.2000E+01
    -22.446  0.0000E+00  0.2000E+01
    -22.335  0.0000E+00  0.2000E+01
    -22.224  0.0000E+00  0.2000E+01
    -22.113  0.0000E+00  0.2000E+01
    -22.002  0.0000E+00  0.2000E+01
    -21.891  0.0000E+00  0.2000E+01
    -21.780  0.0000E+00  0.2000E+01
    -21.669  0.0000E+00  0.2000E+01
    -21.558  0.0000E+00  0.2000E+01
    -21.447  0.0000E+00  0.2000E+01
    -21.336  0.0000E+00  0.2000E+01
    -21.225  0.0000E+00  0.2000E+01
    -21.114  0.0000E+00  0.2000E+01
    -21.003  0.0000E+00  0.2000E+01
    -20.892  0.0000E+00  0.2000E+01
    -20.781  0.0000E+00  0.2000E+01
    -20.670  0.0000E+00  0.2000E+01
    -20.559  0.0000E+00  0.2000E+01
    -20.448  0.0000E+00  0.2000E+01
    -20.337  0.0000E+00  0.2000E+01
    -20.226  0.0000E+00  0.2000E+01
    -20.115  0.0000E+00  0.2000E+01
    -20.005  0.0000E+00  0.2000E+01
    -19.894  0.0000E+00  0.2000E+01
    -19.783  0.0000E+00  0.2000E+01
    -19.672  0.0000E+00  0.2000E+01
    -19.561  0.0000E+00  0.2000E+01
    -19.450  0.0000E+00  0.2000E+01
    -19.339  0.0000E+00  0.2000E+01
    -19.228  0.0000E+00  0.2000E+01
    -19.117  0.0000E+00  0.2000E+01
    -19.006  0.0000E+00  0.2000E+01
    -18.895  0.0000E+00  0.2000E+01
    -18.784  0.0000E+00  0.2000E+01
    -18.673  0.0000E+00  0.2000E+01
    -18.562  0.0000E+00  0.2000E+01
    -18.451  0.0000E+00  0.2000E+01
    -18.340  0.0000E+00  0.2000E+01
    -18.229  0.0000E+00  0.2000E+01
    -18.118  0.0000E+00  0.2000E+01
    -18.007  0.0000E+00  0.2000E+01
    -17.896  0.0000E+00  0.2000E+01
    -17.785  0.0000E+00  0.2000E+01
    -17.674  0.0000E+00  0.2000E+01
    -17.563  0.0000E+00  0.2000E+01
    -17.452  0.0000E+00  0.2000E+01
    -17.341  0.0000E+00  0.2000E+01
    -17.230  0.0000E+00  0.2000E+01
    -17.120  0.0000E+00  0.2000E+01
    -17.009  0.0000E+00  0.2000E+01
    -16.898  0.0000E+00  0.2000E+01
    -16.787  0.0000E+00  0.2000E+01
    -16.676  0.0000E+00  0.2000E+01
    -16.565  0.0000E+00  0.2000E+01
    -16.454  0.0000E+00  0.2000E+01
    -16.343  0.0000E+00  0.2000E+01
    -16.232  0.0000E+00  0.2000E+01
    -16.121  0.0000E+00  0.2000E+01
    -16.010  0.0000E+00  0.2000E+01
    -15.899  0.0000E+00  0.2000E+01
    -15.788  0.0000E+00  0.2000E+01
    -15.677  0.0000E+00  0.2000E+01
    -15.566  0.0000E+00  0.2000E+01
    -15.455  0.0000E+00  0.2000E+01
    -15.344  0.0000E+00  0.2000E+01
    -15.233  0.0000E+00  0.2000E+01
    -15.122  0.0000E+00  0.2000E+01
    -15.011  0.0000E+00  0.2000E+01
    -14.900  0.0000E+00  0.2000E+01
    -14.789  0.0000E+00  0.2000E+01
    -14.678  0.0000E+00  0.2000E+01
    -14.567  0.0000E+00  0.2000E+01
    -14.456  0.0000E+00  0.2000E+01
    -14.345  0.0000E+00  0.2000E+01
    -14.235  0.0000E+00  0.2000E+01
    -14.124  0.1001E-14  0.2000E+01
    -14.013  0.3212E-12  0.2000E+01
    -13.902  0.1002E-09  0.2000E+01
    -13.791  0.1701E-07  0.2000E+01
    -13.680  0.1581E-05  0.2000E+01
    -13.569  0.8062E-04  0.2000E+01
    -13.458  0.2259E-02  0.2000E+01
    -13.347  0.3491E-01  0.2004E+01
    -13.236  0.2983E+00  0.2037E+01
    -13.125  0.1414E+01  0.2194E+01
    -13.014  0.3724E+01  0.2607E+01
    -12.903  0.5462E+01  0.3213E+01
    -12.792  0.4464E+01  0.3709E+01
    -12.681  0.2032E+01  0.3934E+01
    -12.570  0.5146E+00  0.3991E+01
    -12.459  0.7232E-01  0.3999E+01
    -12.348  0.5625E-02  0.4000E+01
    -12.237  0.2415E-03  0.4000E+01
    -12.126  0.5704E-05  0.4000E+01
    -12.015  0.7394E-07  0.4000E+01
    -11.904  0.5248E-09  0.4000E+01
    -11.793  0.2037E-11  0.4000E+01
    -11.682  0.4002E-14  0.4000E+01
    -11.571  0.0000E+00  0.4000E+01
    -11.460  0.0000E+00  0.4000E+01
    -11.350  0.0000E+00  0.4000E+01
    -11.239  0.0000E+00  0.4000E+01
    -11.128  0.0000E+00  0.4000E+01
    -11.017  0.0000E+00  0.4000E+01
    -10.906  0.0000E+00  0.4000E+01
    -10.795  0.0000E+00  0.4000E+01
    -10.684  0.0000E+00  0.4000E+01
    -10.573  0.0000E+00  0.4000E+01
    -10.462  0.0000E+00  0.4000E+01
    -10.351  0.0000E+00  0.4000E+01
    -10.240  0.6604E-13  0.4000E+01
    -10.129  0.2394E-10  0.4000E+01
    -10.018  0.4757E-08  0.4000E+01
     -9.907  0.5169E-06  0.4000E+01
     -9.796  0.3079E-04  0.4000E+01
     -9.685  0.1008E-02  0.4000E+01
     -9.574  0.1817E-01  0.4002E+01
     -9.463  0.1810E+00  0.4022E+01
     -9.352  0.9990E+00  0.4133E+01
     -9.241  0.3064E+01  0.4473E+01
     -9.130  0.5231E+01  0.5054E+01
     -9.019  0.4976E+01  0.5606E+01
     -8.908  0.2637E+01  0.5898E+01
     -8.797  0.7777E+00  0.5985E+01
     -8.686  0.1274E+00  0.5999E+01
     -8.575  0.1155E-01  0.6000E+01
     -8.465  0.5788E-03  0.6000E+01
     -8.354  0.1597E-04  0.6000E+01
     -8.243  0.2419E-06  0.6000E+01
     -8.132  0.2008E-08  0.6000E+01
     -8.021  0.4794E-10  0.6000E+01
     -7.910  0.7321E-08  0.6000E+01
     -7.799  0.7550E-06  0.6000E+01
     -7.688  0.4268E-04  0.6000E+01
     -7.577  0.1326E-02  0.6000E+01
     -7.466  0.2271E-01  0.6003E+01
     -7.355  0.2149E+00  0.6027E+01
     -7.244  0.1127E+01  0.6152E+01
     -7.133  0.3285E+01  0.6516E+01
     -7.022  0.5331E+01  0.7108E+01
     -6.911  0.4819E+01  0.7642E+01
     -6.800  0.2427E+01  0.7912E+01
     -6.689  0.6803E+00  0.7987E+01
     -6.578  0.1059E+00  0.7999E+01
     -6.467  0.9120E-02  0.8000E+01
     -6.356  0.4339E-03  0.8000E+01
     -6.245  0.1136E-04  0.8000E+01
     -6.134  0.1634E-06  0.8000E+01
     -6.023  0.1287E-08  0.8000E+01
     -5.912  0.5543E-11  0.8000E+01
     -5.801  0.1201E-13  0.8000E+01
     -5.690  0.0000E+00  0.8000E+01
     -5.580  0.0000E+00  0.8000E+01
     -5.469  0.0000E+00  0.8000E+01
     -5.358  0.0000E+00  0.8000E+01
     -5.247  0.0000E+00  0.8000E+01
     -5.136  0.0000E+00  0.8000E+01
     -5.025  0.0000E+00  0.8000E+01
     -4.914  0.0000E+00  0.8000E+01
     -4.803  0.0000E+00  0.8000E+01
     -4.692  0.0000E+00  0.8000E+01
     -4.581  0.0000E+00  0.8000E+01
     -4.470  0.0000E+00  0.8000E+01
     -4.359  0.0000E+00  0.8000E+01
     -4.248  0.0000E+00  0.8000E+01
     -4.137  0.0000E+00  0.8000E+01
     -4.026  0.0000E+00  0.8000E+01
     -3.915  0.0000E+00  0.8000E+01
     -3.804  0.0000E+00  0.8000E+01
     -3.693  0.0000E+00  0.8000E+01
     -3.582  0.0000E+00  0.8000E+01
     -3.471  0.0000E+00  0.8000E+01
     -3.360  0.0000E+00  0.8000E+01
     -3.249  0.0000E+00  0.8000E+01
     -3.138  0.0000E+00  0.8000E+01
     -3.027  0.0000E+00  0.8000E+01
     -2.916  0.0000E+00  0.8000E+01
     -2.806  0.0000E+00  0.8000E+01
     -2.695  0.0000E+00  0.8000E+01
     -2.584  0.0000E+00  0.8000E+01
     -2.473  0.0000E+00  0.8000E+01
     -2.362  0.0000E+00  0.8000E+01
     -2.251  0.0000E+00  0.8000E+01
     -2.140  0.2561E-12  0.8000E+01
     -2.029  0.8128E-10  0.8000E+01
     -1.918  0.1413E-07  0.8000E+01
     -1.807  0.1344E-05  0.8000E+01
     -1.696  0.7011E-04  0.8000E+01
     -1.585  0.2011E-02  0.8000E+01
     -1.474  0.3178E-01  0.8004E+01
     -1.363  0.2778E+00  0.8035E+01
     -1.252  0.1346E+01  0.8184E+01
     -1.141  0.3627E+01  0.8586E+01
     -1.030  0.5441E+01  0.9190E+01
     -0.919  0.4547E+01  0.9695E+01
     -0.808  0.2117E+01  0.9930E+01
     -0.697  0.5483E+00  0.9991E+01
     -0.586  0.7882E-01  0.9999E+01
     -0.475  0.6272E-02  0.1000E+02
     -0.364  0.2754E-03  0.1000E+02
     -0.253  0.6657E-05  0.1000E+02
     -0.142  0.8831E-07  0.1000E+02
     -0.031  0.6415E-09  0.1000E+02
      0.079  0.3204E-11  0.1000E+02
      0.190  0.1904E-09  0.1000E+02
      0.301  0.3016E-07  0.1000E+02
      0.412  0.2619E-05  0.1000E+02
      0.523  0.1251E-03  0.1000E+02
      0.634  0.3305E-02  0.1000E+02
      0.745  0.4867E-01  0.1001E+02
      0.856  0.4045E+00  0.1005E+02
      0.967  0.1931E+01  0.1026E+02
      1.078  0.5422E+01  0.1087E+02
      1.189  0.9210E+01  0.1189E+02
      1.300  0.9672E+01  0.1296E+02
      1.411  0.6485E+01  0.1368E+02
      1.522  0.3894E+01  0.1411E+02
      1.633  0.5627E+01  0.1474E+02
      1.744  0.1047E+02  0.1590E+02
      1.855  0.1363E+02  0.1741E+02
      1.966  0.1389E+02  0.1895E+02
      2.077  0.1270E+02  0.2036E+02
      2.188  0.9104E+01  0.2137E+02
      2.299  0.4251E+01  0.2185E+02
      2.410  0.1186E+01  0.2198E+02
      2.521  0.1922E+00  0.2200E+02
      2.632  0.2910E-01  0.2200E+02
      2.743  0.1275E+00  0.2202E+02
      2.854  0.7745E+00  0.2210E+02
      2.964  0.2630E+01  0.2239E+02
      3.075  0.4971E+01  0.2294E+02
      3.186  0.5235E+01  0.2353E+02
      3.297  0.3079E+01  0.2387E+02
      3.408  0.1109E+01  0.2399E+02
      3.519  0.1009E+01  0.2410E+02
      3.630  0.3774E+01  0.2452E+02
      3.741  0.1004E+02  0.2564E+02
      3.852  0.1624E+02  0.2744E+02
      3.963  0.1688E+02  0.2931E+02
      4.074  0.1260E+02  0.3071E+02
      4.185  0.7383E+01  0.3153E+02
      4.296  0.3199E+01  0.3188E+02
      4.407  0.8940E+00  0.3198E+02
      4.518  0.1471E+00  0.3200E+02
      4.629  0.1369E-01  0.3200E+02
      4.740  0.7086E-03  0.3200E+02
      4.851  0.2025E-04  0.3200E+02
      4.962  0.3182E-06  0.3200E+02
      5.073  0.2740E-08  0.3200E+02
      5.184  0.1290E-10  0.3200E+02
      5.295  0.3202E-13  0.3200E+02
      5.406  0.0000E+00  0.3200E+02
      5.517  0.0000E+00  0.3200E+02
      5.628  0.0000E+00  0.3200E+02
      5.739  0.0000E+00  0.3200E+02
      5.849  0.0000E+00  0.3200E+02
      5.960  0.0000E+00  0.3200E+02
      6.071  0.0000E+00  0.3200E+02
