    3    3    1    1
  0.1667104E+03  0.7937700E-09  0.7937700E-09  0.7937700E-09  0.2000000E-16
  1.000000000000000E-004
  CAR 
 H2O vibration                           
      8      1     16
 
  0.0000000E+00  0.0000000E+00  0.0000000E+00  0.1000000E+01
    1      -25.216984   1.000000
    2      -12.941261   1.000000
    3       -9.139785   1.000000
    4       -7.041159   1.000000
    5       -1.064154   0.000000
    6        1.137653   0.000000
    7        1.262371   0.000000
    8        1.745774   0.000000
    9        1.776530   0.000000
   10        1.994899   0.000000
   11        2.080574   0.000000
   12        3.085237   0.000000
   13        3.774875   0.000000
   14        3.840260   0.000000
   15        3.881809   0.000000
   16        4.071400   0.000000
