       N       E                     dE             d eps       ncg     rms          rms(c)
DAV:   1     0.545048436353E+02    0.54505E+02   -0.17271E+03    32   0.222E+02
DAV:   2    -0.127057659347E+02   -0.67211E+02   -0.67191E+02    48   0.593E+01
DAV:   3    -0.162206783441E+02   -0.35149E+01   -0.35149E+01    32   0.237E+01
DAV:   4    -0.162427364287E+02   -0.22058E-01   -0.22058E-01    32   0.213E+00
DAV:   5    -0.162428745117E+02   -0.13808E-03   -0.13808E-03    64   0.168E-01    0.768E+00
DAV:   6    -0.143850759955E+02    0.18578E+01   -0.93148E+00    48   0.107E+01    0.305E+00
DAV:   7    -0.142782645509E+02    0.10681E+00   -0.38854E-02    48   0.951E-01    0.187E+00
DAV:   8    -0.142007414379E+02    0.77523E-01   -0.75802E-02    48   0.128E+00    0.209E-01
DAV:   9    -0.142096670948E+02   -0.89257E-02   -0.46940E-03    64   0.222E-01    0.105E-01
DAV:  10    -0.142143062341E+02   -0.46391E-02   -0.14642E-03    32   0.174E-01    0.500E-02
DAV:  11    -0.142218251284E+02   -0.75189E-02   -0.26311E-03    64   0.132E-01    0.338E-02
DAV:  12    -0.142227864898E+02   -0.96136E-03   -0.42061E-04    32   0.642E-02    0.182E-02
DAV:  13    -0.142236120044E+02   -0.82551E-03   -0.18268E-04    64   0.367E-02    0.544E-03
DAV:  14    -0.142236539139E+02   -0.41909E-04   -0.17668E-06    64   0.651E-03    0.353E-03
DAV:  15    -0.142237478196E+02   -0.93906E-04   -0.11448E-05    48   0.940E-03    0.924E-04
DAV:  16    -0.142237547223E+02   -0.69027E-05   -0.93445E-07    64   0.290E-03
   1 F= -.14223755E+02 E0= -.14223755E+02  d E =-.294813E-10
       N       E                     dE             d eps       ncg     rms          rms(c)
DAV:   1    -0.142159806056E+02    0.77672E-02   -0.22958E+00    32   0.778E+00    0.375E-01
DAV:   2    -0.142152191386E+02    0.76147E-03   -0.25334E-02    48   0.749E-01    0.147E-01
DAV:   3    -0.142151825166E+02    0.36622E-04   -0.38181E-04    48   0.100E-01    0.717E-02
DAV:   4    -0.142153195920E+02   -0.13708E-03   -0.26073E-04    48   0.823E-02    0.108E-02
DAV:   5    -0.142153394729E+02   -0.19881E-04   -0.12425E-05    64   0.185E-02    0.214E-03
DAV:   6    -0.142153493067E+02   -0.98338E-05   -0.46215E-07    32   0.276E-03
   2 F= -.14215349E+02 E0= -.14215349E+02  d E =-.512238E-12
       N       E                     dE             d eps       ncg     rms          rms(c)
DAV:   1    -0.142177492799E+02   -0.24098E-02   -0.90831E+00    32   0.154E+01    0.772E-01
DAV:   2    -0.142155643436E+02    0.21849E-02   -0.11682E-01    48   0.157E+00    0.298E-01
DAV:   3    -0.142149465001E+02    0.61784E-03   -0.16719E-03    48   0.198E-01    0.159E-01
DAV:   4    -0.142154735986E+02   -0.52710E-03   -0.13612E-03    32   0.191E-01    0.229E-02
DAV:   5    -0.142155511283E+02   -0.77530E-04   -0.10074E-04    48   0.492E-02    0.828E-03
DAV:   6    -0.142155848986E+02   -0.33770E-04   -0.49941E-06    48   0.886E-03    0.243E-03
DAV:   7    -0.142156159148E+02   -0.31016E-04   -0.30859E-06    48   0.504E-03    0.193E-03
DAV:   8    -0.142156437691E+02   -0.27854E-04   -0.37065E-06    32   0.530E-03    0.689E-04
DAV:   9    -0.142156529981E+02   -0.92291E-05   -0.89853E-07    32   0.228E-03
   3 F= -.14215653E+02 E0= -.14215653E+02  d E =-.264775E-10
       N       E                     dE             d eps       ncg     rms          rms(c)
DAV:   1    -0.142115645295E+02    0.40792E-02   -0.45871E+00    32   0.111E+01    0.468E-01
DAV:   2    -0.142109943358E+02    0.57019E-03   -0.45782E-02    48   0.108E+00    0.228E-01
DAV:   3    -0.142108881206E+02    0.10622E-03   -0.25306E-03    64   0.244E-01    0.776E-02
DAV:   4    -0.142110778961E+02   -0.18978E-03   -0.35143E-04    64   0.870E-02    0.256E-02
DAV:   5    -0.142111395931E+02   -0.61697E-04   -0.29201E-05    32   0.259E-02    0.100E-02
DAV:   6    -0.142111802492E+02   -0.40656E-04   -0.57353E-06    64   0.115E-02    0.249E-03
DAV:   7    -0.142112059292E+02   -0.25680E-04   -0.28772E-06    64   0.592E-03    0.200E-03
DAV:   8    -0.142112288143E+02   -0.22885E-04   -0.20770E-06    64   0.356E-03    0.767E-04
DAV:   9    -0.142112376552E+02   -0.88409E-05   -0.45261E-07    64   0.159E-03
   4 F= -.14211238E+02 E0= -.14211238E+02  d E =-.458517E-10
       N       E                     dE             d eps       ncg     rms          rms(c)
DAV:   1    -0.142125545955E+02   -0.13258E-02   -0.92004E+00    32   0.155E+01    0.611E-01
DAV:   2    -0.142113155310E+02    0.12391E-02   -0.73624E-02    32   0.137E+00    0.336E-01
DAV:   3    -0.142106187220E+02    0.69681E-03   -0.96105E-03    64   0.496E-01    0.583E-02
DAV:   4    -0.142109015815E+02   -0.28286E-03   -0.65582E-04    32   0.122E-01    0.293E-02
DAV:   5    -0.142110187513E+02   -0.11717E-03   -0.11849E-05    64   0.182E-02    0.138E-02
DAV:   6    -0.142111216823E+02   -0.10293E-03   -0.86923E-06    64   0.132E-02    0.212E-03
DAV:   7    -0.142112028693E+02   -0.81187E-04   -0.10234E-05    64   0.827E-03    0.177E-03
DAV:   8    -0.142112286637E+02   -0.25794E-04   -0.28325E-06    64   0.414E-03    0.586E-04
DAV:   9    -0.142112364843E+02   -0.78206E-05   -0.32514E-07    64   0.134E-03
   5 F= -.14211236E+02 E0= -.14211236E+02  d E =-.587082E-10
       N       E                     dE             d eps       ncg     rms          rms(c)
DAV:   1    -0.142189314116E+02   -0.77027E-02   -0.26947E+00    32   0.845E+00    0.340E-01
DAV:   2    -0.142200447294E+02   -0.11133E-02   -0.40051E-02    64   0.907E-01    0.200E-01
DAV:   3    -0.142196026031E+02    0.44213E-03   -0.14249E-03    64   0.193E-01    0.837E-02
DAV:   4    -0.142197717508E+02   -0.16915E-03   -0.48481E-04    48   0.118E-01    0.189E-02
DAV:   5    -0.142198180611E+02   -0.46310E-04   -0.56951E-05    64   0.364E-02    0.639E-03
DAV:   6    -0.142198397723E+02   -0.21711E-04   -0.15009E-06    48   0.563E-03    0.199E-03
DAV:   7    -0.142198609289E+02   -0.21157E-04   -0.15861E-06    64   0.405E-03    0.994E-04
DAV:   8    -0.142198804434E+02   -0.19514E-04   -0.20959E-06    64   0.339E-03    0.947E-04
DAV:   9    -0.142198851074E+02   -0.46639E-05   -0.25969E-07    64   0.165E-03
   6 F= -.14219885E+02 E0= -.14219885E+02  d E =-.451437E-10
       N       E                     dE             d eps       ncg     rms          rms(c)
DAV:   1    -0.142207702965E+02   -0.88985E-03   -0.56135E-01    32   0.347E+00    0.340E-01
DAV:   2    -0.142194802625E+02    0.12900E-02   -0.10341E-02    64   0.406E-01    0.164E-01
DAV:   3    -0.142195163569E+02   -0.36094E-04   -0.15935E-04    48   0.684E-02    0.812E-02
DAV:   4    -0.142196291089E+02   -0.11275E-03   -0.10578E-04    48   0.585E-02    0.782E-03
DAV:   5    -0.142196763397E+02   -0.47231E-04   -0.13394E-05    64   0.160E-02    0.397E-03
DAV:   6    -0.142197123170E+02   -0.35977E-04   -0.34459E-06    32   0.617E-03    0.162E-03
DAV:   7    -0.142197426925E+02   -0.30375E-04   -0.24959E-06    48   0.438E-03    0.966E-04
DAV:   8    -0.142197625160E+02   -0.19824E-04   -0.17954E-06    64   0.324E-03    0.721E-04
DAV:   9    -0.142197703135E+02   -0.77975E-05   -0.55038E-07    64   0.176E-03
   7 F= -.14219770E+02 E0= -.14219770E+02  d E =-.430632E-10
       N       E                     dE             d eps       ncg     rms          rms(c)
DAV:   1    -0.142164122132E+02    0.33503E-02   -0.25389E-01    32   0.241E+00    0.144E-01
DAV:   2    -0.142165260765E+02   -0.11386E-03   -0.11272E-03    48   0.171E-01    0.903E-02
DAV:   3    -0.142166327465E+02   -0.10667E-03   -0.18530E-04    64   0.703E-02    0.129E-02
DAV:   4    -0.142166517517E+02   -0.19005E-04   -0.15262E-05    64   0.173E-02    0.700E-03
DAV:   5    -0.142166827929E+02   -0.31041E-04   -0.36608E-06    64   0.827E-03    0.284E-03
DAV:   6    -0.142167193467E+02   -0.36554E-04   -0.37418E-06    64   0.679E-03    0.152E-03
DAV:   7    -0.142167582165E+02   -0.38870E-04   -0.50856E-06    48   0.582E-03    0.536E-04
DAV:   8    -0.142167695551E+02   -0.11339E-04   -0.73013E-07    64   0.203E-03    0.296E-04
DAV:   9    -0.142167750573E+02   -0.55022E-05   -0.41792E-07    48   0.139E-03
   8 F= -.14216775E+02 E0= -.14216775E+02  d E =-.755572E-12
       N       E                     dE             d eps       ncg     rms          rms(c)
DAV:   1    -0.142186355794E+02   -0.18660E-02   -0.58338E-01    32   0.362E+00    0.377E-01
DAV:   2    -0.142171011884E+02    0.15344E-02   -0.14479E-02    48   0.505E-01    0.191E-01
DAV:   3    -0.142169429012E+02    0.15829E-03   -0.38378E-04    48   0.106E-01    0.891E-02
DAV:   4    -0.142169802149E+02   -0.37314E-04   -0.17140E-04    48   0.742E-02    0.117E-02
DAV:   5    -0.142170191134E+02   -0.38899E-04   -0.22874E-05    64   0.226E-02    0.536E-03
DAV:   6    -0.142170437791E+02   -0.24666E-04   -0.21133E-06    64   0.600E-03    0.213E-03
DAV:   7    -0.142170897300E+02   -0.45951E-04   -0.43312E-06    32   0.546E-03    0.125E-03
DAV:   8    -0.142171090288E+02   -0.19299E-04   -0.12502E-06    64   0.291E-03    0.773E-04
DAV:   9    -0.142171198913E+02   -0.10863E-04   -0.78670E-07    48   0.201E-03    0.207E-04
DAV:  10    -0.142171220034E+02   -0.21121E-05   -0.67741E-08    48   0.637E-04
   9 F= -.14217122E+02 E0= -.14217122E+02  d E =-.250676E-10
       N       E                     dE             d eps       ncg     rms          rms(c)
DAV:   1    -0.142194408126E+02   -0.23209E-02   -0.26445E-01    32   0.254E+00    0.185E-01
DAV:   2    -0.142197995239E+02   -0.35871E-03   -0.61420E-03    48   0.374E-01    0.137E-01
DAV:   3    -0.142197490219E+02    0.50502E-04   -0.39813E-04    64   0.119E-01    0.209E-02
DAV:   4    -0.142197710772E+02   -0.22055E-04   -0.55195E-05    64   0.362E-02    0.912E-03
DAV:   5    -0.142197932107E+02   -0.22134E-04   -0.37057E-06    48   0.966E-03    0.447E-03
DAV:   6    -0.142198267186E+02   -0.33508E-04   -0.42442E-06    48   0.833E-03    0.168E-03
DAV:   7    -0.142198631473E+02   -0.36429E-04   -0.38999E-06    48   0.556E-03    0.842E-04
DAV:   8    -0.142198762736E+02   -0.13126E-04   -0.79847E-07    64   0.243E-03    0.700E-04
DAV:   9    -0.142198843191E+02   -0.80455E-05   -0.69704E-07    48   0.207E-03
  10 F= -.14219884E+02 E0= -.14219884E+02  d E =-.585198E-10
       N       E                     dE             d eps       ncg     rms          rms(c)
DAV:   1    -0.142207224905E+02   -0.84622E-03   -0.56089E-01    32   0.347E+00    0.337E-01
DAV:   2    -0.142194794615E+02    0.12430E-02   -0.10148E-02    48   0.403E-01    0.165E-01
DAV:   3    -0.142195235400E+02   -0.44079E-04   -0.26290E-04    48   0.805E-02    0.789E-02
DAV:   4    -0.142196302512E+02   -0.10671E-03   -0.12484E-04    64   0.582E-02    0.112E-02
DAV:   5    -0.142196643033E+02   -0.34052E-04   -0.23755E-05    32   0.191E-02    0.578E-03
DAV:   6    -0.142197089308E+02   -0.44628E-04   -0.66192E-06    64   0.949E-03    0.174E-03
DAV:   7    -0.142197363206E+02   -0.27390E-04   -0.24758E-06    48   0.473E-03    0.167E-03
DAV:   8    -0.142197568747E+02   -0.20554E-04   -0.18139E-06    64   0.365E-03    0.581E-04
DAV:   9    -0.142197695002E+02   -0.12626E-04   -0.10633E-06    64   0.224E-03    0.245E-04
DAV:  10    -0.142197721281E+02   -0.26279E-05   -0.10256E-07    48   0.744E-04
  11 F= -.14219772E+02 E0= -.14219772E+02  d E =-.552357E-10
       N       E                     dE             d eps       ncg     rms          rms(c)
DAV:   1    -0.142186419093E+02    0.11276E-02   -0.31923E-01    32   0.263E+00    0.330E-01
DAV:   2    -0.142171735759E+02    0.14683E-02   -0.12484E-02    48   0.437E-01    0.155E-01
DAV:   3    -0.142170618604E+02    0.11172E-03   -0.21349E-04    48   0.780E-02    0.771E-02
DAV:   4    -0.142170815755E+02   -0.19715E-04   -0.11989E-04    64   0.630E-02    0.816E-03
DAV:   5    -0.142170938038E+02   -0.12228E-04   -0.11872E-05    64   0.167E-02    0.364E-03
DAV:   6    -0.142171025970E+02   -0.87932E-05   -0.10791E-06    64   0.442E-03
  12 F= -.14217103E+02 E0= -.14217103E+02  d E =-.291734E-10
       N       E                     dE             d eps       ncg     rms          rms(c)
DAV:   1    -0.142180218643E+02   -0.92806E-03   -0.59491E-01    32   0.365E+00    0.371E-01
DAV:   2    -0.142166604515E+02    0.13614E-02   -0.14213E-02    48   0.515E-01    0.193E-01
DAV:   3    -0.142165302258E+02    0.13023E-03   -0.41923E-04    48   0.110E-01    0.890E-02
DAV:   4    -0.142166101042E+02   -0.79878E-04   -0.18297E-04    64   0.749E-02    0.118E-02
DAV:   5    -0.142166681458E+02   -0.58042E-04   -0.24738E-05    64   0.217E-02    0.561E-03
DAV:   6    -0.142166957677E+02   -0.27622E-04   -0.34328E-06    64   0.729E-03    0.196E-03
DAV:   7    -0.142167427468E+02   -0.46979E-04   -0.57738E-06    48   0.651E-03    0.111E-03
DAV:   8    -0.142167608799E+02   -0.18133E-04   -0.12940E-06    64   0.285E-03    0.685E-04
DAV:   9    -0.142167730435E+02   -0.12164E-04   -0.11547E-06    48   0.235E-03    0.212E-04
DAV:  10    -0.142167759392E+02   -0.28958E-05   -0.14333E-07    64   0.843E-04
  13 F= -.14216776E+02 E0= -.14216776E+02  d E =-.611533E-12
