 vasp.5.4.1 24Jun15 (build Apr 04 2016 10:44:54) complex                        
  
 executed on                Titan date 2018.12.04  13:35:57
 running on   16 total cores
 distrk:  each k-point on   16 cores,    1 groups
 distr:  one band on NCORES_PER_BAND=   1 cores,   16 groups


--------------------------------------------------------------------------------------------------------


 INCAR:
 POTCAR:   PAW_RPBE O 08Apr2002                   
 POTCAR:   PAW_RPBE H 15Jun2001                   

 ----------------------------------------------------------------------------- 
|                                                                             |
|           W    W    AA    RRRRR   N    N  II  N    N   GGGG   !!!           |
|           W    W   A  A   R    R  NN   N  II  NN   N  G    G  !!!           |
|           W    W  A    A  R    R  N N  N  II  N N  N  G       !!!           |
|           W WW W  AAAAAA  RRRRR   N  N N  II  N  N N  G  GGG   !            |
|           WW  WW  A    A  R   R   N   NN  II  N   NN  G    G                |
|           W    W  A    A  R    R  N    N  II  N    N   GGGG   !!!           |
|                                                                             |
|      For optimal performance we recommend to set                            |
|        NCORE= 4 - approx SQRT( number of cores)                             |
|      NCORE specifies how many cores store one orbital (NPAR=cpu/NCORE).     |
|      This setting can  greatly improve the performance of VASP for DFT.     |
|      The default, NPAR=number of cores might be grossly inefficient         |
|      on modern multi-core architectures or massively parallel machines.     |
|      Do your own testing !!!!                                               |
|      Unfortunately you need to use the default for GW and RPA calculations. |
|      (for HF NCORE is supported but not extensively tested yet)             |
|                                                                             |
 ----------------------------------------------------------------------------- 

 POTCAR:   PAW_RPBE O 08Apr2002                   
   VRHFIN =O: s2p4                                                              
   LEXCH  = PE                                                                  
   EATOM  =   432.3788 eV,   31.7789 Ry                                         
                                                                                
   TITEL  = PAW_RPBE O 08Apr2002                                                
   LULTRA =        F    use ultrasoft PP ?                                      
   IUNSCR =        0    unscreen: 0-lin 1-nonlin 2-no                           
   RPACOR =     .000    partial core radius                                     
   POMASS =   16.000; ZVAL   =    6.000    mass and valenz                      
   RCORE  =    1.520    outmost cutoff radius                                   
   RWIGS  =    1.550; RWIGS  =     .820    wigner-seitz radius (au A)           
   ENMAX  =  400.000; ENMIN  =  300.000 eV                                      
   ICORE  =        2    local potential                                         
   LCOR   =        T    correct aug charges                                     
   LPAW   =        T    paw PP                                                  
   EAUG   =  605.392                                                            
   DEXC   =     .000                                                            
   RMAX   =    2.264    core radius for proj-oper                               
   RAUG   =    1.300    factor for augmentation sphere                          
   RDEP   =    1.550    radius for radial grids                                 
   QCUT   =   -5.520; QGAM   =   11.041    optimization parameters              
                                                                                
   Description                                                                  
     l     E      TYP  RCUT    TYP  RCUT                                        
     0   .000     23  1.200                                                     
     0  -.700     23  1.200                                                     
     1   .000     23  1.520                                                     
     1   .600     23  1.520                                                     
     2   .000      7  1.500                                                     
  local pseudopotential read in
  atomic valenz-charges read in
  non local Contribution for L=           0  read in
    real space projection operators read in
  non local Contribution for L=           0  read in
    real space projection operators read in
  non local Contribution for L=           1  read in
    real space projection operators read in
  non local Contribution for L=           1  read in
    real space projection operators read in
    PAW grid and wavefunctions read in
 
   number of l-projection  operators is LMAX  =           4
   number of lm-projection operators is LMMAX =           8
 
 POTCAR:   PAW_RPBE H 15Jun2001                   
   VRHFIN =H: ultrasoft test                                                    
   LEXCH  = PE                                                                  
   EATOM  =    12.4884 eV,     .9179 Ry                                         
                                                                                
   TITEL  = PAW_RPBE H 15Jun2001                                                
   LULTRA =        F    use ultrasoft PP ?                                      
   IUNSCR =        0    unscreen: 0-lin 1-nonlin 2-no                           
   RPACOR =     .000    partial core radius                                     
   POMASS =    1.000; ZVAL   =    1.000    mass and valenz                      
   RCORE  =    1.100    outmost cutoff radius                                   
   RWIGS  =     .700; RWIGS  =     .370    wigner-seitz radius (au A)           
   ENMAX  =  250.000; ENMIN  =  200.000 eV                                      
   RCLOC  =     .701    cutoff for local pot                                    
   LCOR   =        T    correct aug charges                                     
   LPAW   =        T    paw PP                                                  
   EAUG   =  400.000                                                            
   RMAX   =    2.174    core radius for proj-oper                               
   RAUG   =    1.200    factor for augmentation sphere                          
   RDEP   =    1.112    radius for radial grids                                 
   QCUT   =   -5.749; QGAM   =   11.498    optimization parameters              
                                                                                
   Description                                                                  
     l     E      TYP  RCUT    TYP  RCUT                                        
     0   .000     23  1.100                                                     
     0   .500     23  1.100                                                     
     1  -.300     23  1.100                                                     
  local pseudopotential read in
  atomic valenz-charges read in
  non local Contribution for L=           0  read in
    real space projection operators read in
  non local Contribution for L=           0  read in
    real space projection operators read in
  non local Contribution for L=           1  read in
    real space projection operators read in
    PAW grid and wavefunctions read in
 
   number of l-projection  operators is LMAX  =           3
   number of lm-projection operators is LMMAX =           5
 
 PAW_RPBE O 08Apr2002                   :
 energy of atom  1       EATOM= -432.3788
 kinetic energy error for atom=    0.1156 (will be added to EATOM!!)
 PAW_RPBE H 15Jun2001                   :
 energy of atom  2       EATOM=  -12.4884
 kinetic energy error for atom=    0.0098 (will be added to EATOM!!)
 
 
 POSCAR: H2O _2                                  
  positions in cartesian coordinates
  No initial velocities read in
 exchange correlation table for  LEXCH =        8
   RHO(1)=    0.500       N(1)  =     2000
   RHO(2)=  100.500       N(2)  =     4000
 


--------------------------------------------------------------------------------------------------------


 ion  position               nearest neighbor table
   1  0.000  0.000  0.000-   2 0.97   3 0.97
   2  0.075  0.903  0.000-   1 0.97
   3  0.075  0.097  0.000-   1 0.97
 
  LATTYP: Found a simple cubic cell.
 ALAT       =     7.9377000000
  
  Lattice vectors:
  
 A1 = (   7.9377000000,   0.0000000000,   0.0000000000)
 A2 = (   0.0000000000,   7.9377000000,   0.0000000000)
 A3 = (   0.0000000000,   0.0000000000,   7.9377000000)


Analysis of symmetry for initial positions (statically):
=====================================================================
 Subroutine PRICEL returns:
 Original cell was already a primitive cell.
 

 Routine SETGRP: Setting up the symmetry group for a 
 simple cubic supercell.


 Subroutine GETGRP returns: Found  4 space group operations
 (whereof  4 operations were pure point group operations)
 out of a pool of 48 trial point group operations.


The static configuration has the point symmetry C_2v.


Analysis of symmetry for dynamics (positions and initial velocities):
=====================================================================
 Subroutine PRICEL returns:
 Original cell was already a primitive cell.
 

 Routine SETGRP: Setting up the symmetry group for a 
 simple cubic supercell.


 Subroutine GETGRP returns: Found  4 space group operations
 (whereof  4 operations were pure point group operations)
 out of a pool of 48 trial point group operations.


The dynamic configuration has the point symmetry C_2v.


Analysis of constrained symmetry for selective dynamics:
=====================================================================
 Subroutine PRICEL returns:
 Original cell was already a primitive cell.
 

 Routine SETGRP: Setting up the symmetry group for a 
 simple cubic supercell.


 Subroutine GETGRP returns: Found  4 space group operations
 (whereof  4 operations were pure point group operations)
 out of a pool of 48 trial point group operations.


The constrained configuration has the point symmetry C_2v.
 
 
 KPOINTS: Gamma-point only                        
  k-points in reciprocal lattice
Space group operators:
 irot       det(A)        alpha          n_x          n_y          n_z        tau_x        tau_y        tau_z
    1     1.000000     0.000001     1.000000     0.000000     0.000000     0.000000     0.000000     0.000000
    2    -1.000000   180.000000     0.000000     0.000000     1.000000     0.000000     0.000000     0.000000
    3     1.000000   180.000000     1.000000     0.000000     0.000000     0.000000     0.000000     0.000000
    4    -1.000000   180.000000     0.000000     1.000000     0.000000     0.000000     0.000000     0.000000

 ----------------------------------------------------------------------------- 
|                                                                             |
|           W    W    AA    RRRRR   N    N  II  N    N   GGGG   !!!           |
|           W    W   A  A   R    R  NN   N  II  NN   N  G    G  !!!           |
|           W    W  A    A  R    R  N N  N  II  N N  N  G       !!!           |
|           W WW W  AAAAAA  RRRRR   N  N N  II  N  N N  G  GGG   !            |
|           WW  WW  A    A  R   R   N   NN  II  N   NN  G    G                |
|           W    W  A    A  R    R  N    N  II  N    N   GGGG   !!!           |
|                                                                             |
|      Your generating k-point grid is not commensurate to the symmetry       |
|      of the lattice.  This can cause   slow convergence with respect        |
|      to k-points for HF type calculations                                   |
|      suggested SOLUTIONS:                                                   |
|       ) if not already the case, use automatic k-point generation           |
|       ) shift your grid to Gamma (G) (e.g. required for hex or fcc lattice) |
|                                                                             |
 ----------------------------------------------------------------------------- 

 
 Subroutine IBZKPT_HF returns following result:
 ==============================================
 
 Found      1 k-points in 1st BZ
 the following      1 k-points will be used (e.g. in the exchange kernel)
 Following reciprocal coordinates:   # in IRBZ
  0.000000  0.000000  0.000000    1.00000000   1 t-inv F


--------------------------------------------------------------------------------------------------------




 Dimension of arrays:
   k-points           NKPTS =      1   k-points in BZ     NKDIM =      1   number of bands    NBANDS=     16
   number of dos      NEDOS =    301   number of ions     NIONS =      3
   non local maximal  LDIM  =      4   non local SUM 2l+1 LMDIM =      8
   total plane-waves  NPLWV =  64000
   max r-space proj   IRMAX =      1   max aug-charges    IRDMAX=   1860
   dimension x,y,z NGX =    40 NGY =   40 NGZ =   40
   dimension x,y,z NGXF=    80 NGYF=   80 NGZF=   80
   support grid    NGXF=    80 NGYF=   80 NGZF=   80
   ions per type =               1   2
 NGX,Y,Z   is equivalent  to a cutoff of   8.38,  8.38,  8.38 a.u.
 NGXF,Y,Z  is equivalent  to a cutoff of  16.76, 16.76, 16.76 a.u.


 I would recommend the setting:
   dimension x,y,z NGX =    39 NGY =   39 NGZ =   39
 SYSTEM =  H2O vibration                           
 POSCAR =  H2O _2                                  

 Startparameter for this run:
   NWRITE =      2    write-flag & timer
   PREC   = normal    normal or accurate (medium, high low for compatibility)
   ISTART =      0    job   : 0-new  1-cont  2-samecut
   ICHARG =      2    charge: 1-file 2-atom 10-const
   ISPIN  =      1    spin polarized calculation?
   LNONCOLLINEAR =      F non collinear calculations
   LSORBIT =      F    spin-orbit coupling
   INIWAV =      1    electr: 0-lowe 1-rand  2-diag
   LASPH  =      F    aspherical Exc in radial PAW
   METAGGA=      F    non-selfconsistent MetaGGA calc.

 Electronic Relaxation 1
   ENCUT  =  400.0 eV  29.40 Ry    5.42 a.u.  12.94 12.94 12.94*2*pi/ulx,y,z
   ENINI  =  400.0     initial cutoff
   ENAUG  =  605.4 eV  augmentation charge cutoff
   NELM   =     60;   NELMIN=  2; NELMDL= -5     # of ELM steps 
   EDIFF  = 0.1E-04   stopping-criterion for ELM
   LREAL  =      F    real-space projection
   NLSPLINE    = F    spline interpolate recip. space projectors
   LCOMPAT=      F    compatible to vasp.4.4
   GGA_COMPAT  = T    GGA compatible to vasp.4.4-vasp.4.6
   LMAXPAW     = -100 max onsite density
   LMAXMIX     =    2 max onsite mixed and CHGCAR
   VOSKOWN=      0    Vosko Wilk Nusair interpolation
   ROPT   =    0.00000   0.00000
 Ionic relaxation
   EDIFFG = 0.1E-03   stopping-criterion for IOM
   NSW    =     73    number of steps for IOM
   NBLOCK =      1;   KBLOCK =      1    inner block; outer block 
   IBRION =      5    ionic relax: 0-MD 1-quasi-New 2-CG
   NFREE  =      2    steps in history (QN), initial steepest desc. (CG)
   ISIF   =      2    stress and relaxation
   IWAVPR =     11    prediction:  0-non 1-charg 2-wave 3-comb
   ISYM   =      2    0-nonsym 1-usesym 2-fastsym
   LCORR  =      T    Harris-Foulkes like correction to forces

   POTIM  = 0.0200    time-step for ionic-motion
   TEIN   =    0.0    initial temperature
   TEBEG  =    0.0;   TEEND  =   0.0 temperature during run
   SMASS  =  -3.00    Nose mass-parameter (am)
   estimated Nose-frequenzy (Omega)   =  0.10E-29 period in steps =****** mass=  -0.144E-26a.u.
   SCALEE = 1.0000    scale energy and forces
   NPACO  =    256;   APACO  = 16.0  distance and # of slots for P.C.
   PSTRESS=    0.0 pullay stress

  Mass of Ions in am
   POMASS =  16.00  1.00
  Ionic Valenz
   ZVAL   =   6.00  1.00
  Atomic Wigner-Seitz radii
   RWIGS  =  -1.00 -1.00
  virtual crystal weights 
   VCA    =   1.00  1.00
   NELECT =       8.0000    total number of electrons
   NUPDOWN=      -1.0000    fix difference up-down

 DOS related values:
   EMIN   =  10.00;   EMAX   =-10.00  energy-range for DOS
   EFERMI =   0.00
   ISMEAR =     0;   SIGMA  =   0.20  broadening in eV -4-tet -1-fermi 0-gaus

 Electronic relaxation 2 (details)
   IALGO  =     38    algorithm
   LDIAG  =      T    sub-space diagonalisation (order eigenvalues)
   LSUBROT=      F    optimize rotation matrix (better conditioning)
   TURBO    =      0    0=normal 1=particle mesh
   IRESTART =      0    0=no restart 2=restart with 2 vectors
   NREBOOT  =      0    no. of reboots
   NMIN     =      0    reboot dimension
   EREF     =   0.00    reference energy to select bands
   IMIX   =      4    mixing-type and parameters
     AMIX     =   0.40;   BMIX     =  1.00
     AMIX_MAG =   1.60;   BMIX_MAG =  1.00
     AMIN     =   0.10
     WC   =   100.;   INIMIX=   1;  MIXPRE=   1;  MAXMIX= -45

 Intra band minimization:
   WEIMIN = 0.0010     energy-eigenvalue tresh-hold
   EBREAK =  0.16E-06  absolut break condition
   DEPER  =   0.30     relativ break condition  

   TIME   =   0.40     timestep for ELM

  volume/ion in A,a.u.               =     166.71      1125.02
  Fermi-wavevector in a.u.,A,eV,Ry     =   0.412487  0.779487  2.314969  0.170145
  Thomas-Fermi vector in A             =   1.369490
 
 Write flags
   LWAVE  =      T    write WAVECAR
   LCHARG =      T    write CHGCAR
   LVTOT  =      F    write LOCPOT, total local potential
   LVHAR  =      F    write LOCPOT, Hartree potential only
   LELF   =      F    write electronic localiz. function (ELF)
   LORBIT =      0    0 simple, 1 ext, 2 COOP (PROOUT)


 Dipole corrections
   LMONO  =      F    monopole corrections only (constant potential shift)
   LDIPOL =      F    correct potential (dipole corrections)
   IDIPOL =      0    1-x, 2-y, 3-z, 4-all directions 
   EPSILON=  1.0000000 bulk dielectric constant

 Exchange correlation treatment:
   GGA     =    --    GGA type
   LEXCH   =     8    internal setting for exchange type
   VOSKOWN=      0    Vosko Wilk Nusair interpolation
   LHFCALC =     F    Hartree Fock is set to
   LHFONE  =     F    Hartree Fock one center treatment
   AEXX    =    0.0000 exact exchange contribution

 Linear response parameters
   LEPSILON=     F    determine dielectric tensor
   LRPA    =     F    only Hartree local field effects (RPA)
   LNABLA  =     F    use nabla operator in PAW spheres
   LVEL    =     F    velocity operator in full k-point grid
   LINTERFAST=   F  fast interpolation
   KINTER  =     0    interpolate to denser k-point grid
   CSHIFT  =0.1000    complex shift for real part using Kramers Kronig
   OMEGAMAX=  -1.0    maximum frequency
   DEG_THRESHOLD= 0.2000000E-02 threshold for treating states as degnerate
   RTIME   =    0.100 relaxation time in fs

 Orbital magnetization related:
   ORBITALMAG=     F  switch on orbital magnetization
   LCHIMAG   =     F  perturbation theory with respect to B field
   DQ        =  0.001000  dq finite difference perturbation B field



--------------------------------------------------------------------------------------------------------


 finite differences
   using selective dynamics as specified on POSCAR
   WARNING: If single coordinates had been selected the selection of coordinates
            is made according to the corresponding   d i r e c t   coordinates!
            Don't support selection of single cartesian coordinates -- sorry ...
  !
 charge density and potential will be updated during run
 non-spin polarized calculation
 Variant of blocked Davidson
 Davidson routine will perform the subspace rotation
 perform sub-space diagonalisation
    after iterative eigenvector-optimisation
 modified Broyden-mixing scheme, WC =      100.0
 initial mixing is a Kerker type mixing with AMIX =  0.4000 and BMIX =      1.0000
 Hartree-type preconditioning will be used
 using additional bands           12
 reciprocal scheme for non local part
 calculate Harris-corrections to forces 
   (improved forces if not selfconsistent)
 use gradient corrections 
 use of overlap-Matrix (Vanderbilt PP)
 Gauss-broadening in eV      SIGMA  =   0.20


--------------------------------------------------------------------------------------------------------


  energy-cutoff  :      400.00
  volume of cell :      500.13
      direct lattice vectors                 reciprocal lattice vectors
     7.937700000  0.000000000  0.000000000     0.125981078  0.000000000  0.000000000
     0.000000000  7.937700000  0.000000000     0.000000000  0.125981078  0.000000000
     0.000000000  0.000000000  7.937700000     0.000000000  0.000000000  0.125981078

  length of vectors
     7.937700000  7.937700000  7.937700000     0.125981078  0.125981078  0.125981078


 
 k-points in units of 2pi/SCALE and weight: Gamma-point only                        
   0.00000000  0.00000000  0.00000000       1.000
 
 k-points in reciprocal lattice and weights: Gamma-point only                        
   0.00000000  0.00000000  0.00000000       1.000
 
 position of ions in fractional coordinates (direct lattice) 
   0.00000000  0.00000000  0.00000000
   0.07513045  0.90318071  0.00000000
   0.07513045  0.09681929  0.00000000
 
 position of ions in cartesian coordinates  (Angst):
   0.00000000  0.00000000  0.00000000
   0.59636295  7.16917755  0.00000000
   0.59636295  0.76852245  0.00000000
 


--------------------------------------------------------------------------------------------------------


 k-point  1 :   0.0000 0.0000 0.0000  plane waves:    9045

 maximum and minimum number of plane-waves per node :      9045     9045

 maximum number of plane-waves:      9045
 maximum index in each direction: 
   IXMAX=   12   IYMAX=   12   IZMAX=   12
   IXMIN=  -12   IYMIN=  -12   IZMIN=  -12

 WARNING: aliasing errors must be expected set NGX to  50 to avoid them
 WARNING: aliasing errors must be expected set NGY to  50 to avoid them
 WARNING: aliasing errors must be expected set NGZ to  50 to avoid them
 aliasing errors are usually negligible using standard VASP settings
 and one can safely disregard these warnings

 serial   3D FFT for wavefunctions
 parallel 3D FFT for charge:
    minimum data exchange during FFTs selected (reduces bandwidth)


 total amount of memory used by VASP on root node    37533. kBytes
========================================================================

   base      :      30000. kBytes
   nonl-proj :       1593. kBytes
   fftplans  :       1377. kBytes
   grid      :       4409. kBytes
   one-center:          9. kBytes
   wavefun   :        145. kBytes
 
     INWAV:  cpu time    0.0000: real time    0.0000
 Broyden mixing: mesh for mixing (old mesh)
   NGX = 25   NGY = 25   NGZ = 25
  (NGX  = 80   NGY  = 80   NGZ  = 80)
  gives a total of  15625 points

 initial charge density was supplied:
 charge density of overlapping atoms calculated
 number of electron       8.0000000 magnetization 
 keeping initial charge density in first step


--------------------------------------------------------------------------------------------------------


 Maximum index for augmentation-charges          169 (set IRDMAX)


--------------------------------------------------------------------------------------------------------


 First call to EWALD:  gamma=   0.223
 Maximum number of real-space cells 3x 3x 3
 Maximum number of reciprocal cells 3x 3x 3

 FEWALD executed in parallel
    FEWALD:  cpu time    0.0040: real time    0.0022


----------------------------------------- Iteration    1(   1)  ---------------------------------------


    POTLOK:  cpu time    0.0640: real time    0.0674
    SETDIJ:  cpu time    0.0000: real time    0.0023
     EDDAV:  cpu time    0.0400: real time    0.0400
       DOS:  cpu time    0.0040: real time    0.0002
    --------------------------------------------
      LOOP:  cpu time    0.1120: real time    0.1168

 eigenvalue-minimisations  :    32
 total energy-change (2. order) : 0.5450484E+02  (-0.1727125E+03)
 number of electron       8.0000000 magnetization 
 augmentation part        8.0000000 magnetization 

 Free energy of the ion-electron system (eV)
  ---------------------------------------------------
  alpha Z        PSCENC =         0.44832783
  Ewald energy   TEWEN  =        23.12739290
  -Hartree energ DENC   =      -384.48937671
  -exchange      EXHF   =         0.00000000
  -V(xc)+E(xc)   XCENC  =        32.22925639
  PAW double counting   =       247.56105404     -249.42875511
  entropy T*S    EENTRO =        -0.00225631
  eigenvalues    EBANDS =       -72.16126076
  atomic energy  EATOM  =       457.22046137
  Solvation  Ediel_sol  =         0.00000000
  ---------------------------------------------------
  free energy    TOTEN  =        54.50484364 eV

  energy without entropy =       54.50709994  energy(sigma->0) =       54.50597179


--------------------------------------------------------------------------------------------------------




----------------------------------------- Iteration    1(   2)  ---------------------------------------


     EDDAV:  cpu time    0.0560: real time    0.0550
       DOS:  cpu time    0.0000: real time    0.0001
    --------------------------------------------
      LOOP:  cpu time    0.0560: real time    0.0653

 eigenvalue-minimisations  :    48
 total energy-change (2. order) :-0.6721061E+02  (-0.6719090E+02)
 number of electron       8.0000000 magnetization 
 augmentation part        8.0000000 magnetization 

 Free energy of the ion-electron system (eV)
  ---------------------------------------------------
  alpha Z        PSCENC =         0.44832783
  Ewald energy   TEWEN  =        23.12739290
  -Hartree energ DENC   =      -384.48937671
  -exchange      EXHF   =         0.00000000
  -V(xc)+E(xc)   XCENC  =        32.22925639
  PAW double counting   =       247.56105404     -249.42875511
  entropy T*S    EENTRO =        -0.00000000
  eigenvalues    EBANDS =      -139.37412663
  atomic energy  EATOM  =       457.22046137
  Solvation  Ediel_sol  =         0.00000000
  ---------------------------------------------------
  free energy    TOTEN  =       -12.70576593 eV

  energy without entropy =      -12.70576593  energy(sigma->0) =      -12.70576593


--------------------------------------------------------------------------------------------------------




----------------------------------------- Iteration    1(   3)  ---------------------------------------


     EDDAV:  cpu time    0.0400: real time    0.0374
       DOS:  cpu time    0.0000: real time    0.0001
    --------------------------------------------
      LOOP:  cpu time    0.0400: real time    0.0441

 eigenvalue-minimisations  :    32
 total energy-change (2. order) :-0.3514912E+01  (-0.3514912E+01)
 number of electron       8.0000000 magnetization 
 augmentation part        8.0000000 magnetization 

 Free energy of the ion-electron system (eV)
  ---------------------------------------------------
  alpha Z        PSCENC =         0.44832783
  Ewald energy   TEWEN  =        23.12739290
  -Hartree energ DENC   =      -384.48937671
  -exchange      EXHF   =         0.00000000
  -V(xc)+E(xc)   XCENC  =        32.22925639
  PAW double counting   =       247.56105404     -249.42875511
  entropy T*S    EENTRO =        -0.00000000
  eigenvalues    EBANDS =      -142.88903904
  atomic energy  EATOM  =       457.22046137
  Solvation  Ediel_sol  =         0.00000000
  ---------------------------------------------------
  free energy    TOTEN  =       -16.22067834 eV

  energy without entropy =      -16.22067834  energy(sigma->0) =      -16.22067834


--------------------------------------------------------------------------------------------------------




----------------------------------------- Iteration    1(   4)  ---------------------------------------


     EDDAV:  cpu time    0.0360: real time    0.0374
       DOS:  cpu time    0.0000: real time    0.0001
    --------------------------------------------
      LOOP:  cpu time    0.0360: real time    0.0424

 eigenvalue-minimisations  :    32
 total energy-change (2. order) :-0.2205808E-01  (-0.2205808E-01)
 number of electron       8.0000000 magnetization 
 augmentation part        8.0000000 magnetization 

 Free energy of the ion-electron system (eV)
  ---------------------------------------------------
  alpha Z        PSCENC =         0.44832783
  Ewald energy   TEWEN  =        23.12739290
  -Hartree energ DENC   =      -384.48937671
  -exchange      EXHF   =         0.00000000
  -V(xc)+E(xc)   XCENC  =        32.22925639
  PAW double counting   =       247.56105404     -249.42875511
  entropy T*S    EENTRO =        -0.00000000
  eigenvalues    EBANDS =      -142.91109713
  atomic energy  EATOM  =       457.22046137
  Solvation  Ediel_sol  =         0.00000000
  ---------------------------------------------------
  free energy    TOTEN  =       -16.24273643 eV

  energy without entropy =      -16.24273643  energy(sigma->0) =      -16.24273643


--------------------------------------------------------------------------------------------------------




----------------------------------------- Iteration    1(   5)  ---------------------------------------


     EDDAV:  cpu time    0.0760: real time    0.0750
       DOS:  cpu time    0.0000: real time    0.0001
    CHARGE:  cpu time    0.0240: real time    0.0233
    MIXING:  cpu time    0.0000: real time    0.0011
    --------------------------------------------
      LOOP:  cpu time    0.1040: real time    0.1050

 eigenvalue-minimisations  :    64
 total energy-change (2. order) :-0.1380830E-03  (-0.1380830E-03)
 number of electron       8.0000141 magnetization 
 augmentation part        0.8291653 magnetization 

 Broyden mixing:
  rms(total) = 0.76789E+00    rms(broyden)= 0.76509E+00
  rms(prec ) = 0.11778E+01
  weight for this iteration     100.00

 Free energy of the ion-electron system (eV)
  ---------------------------------------------------
  alpha Z        PSCENC =         0.44832783
  Ewald energy   TEWEN  =        23.12739290
  -Hartree energ DENC   =      -384.48937671
  -exchange      EXHF   =         0.00000000
  -V(xc)+E(xc)   XCENC  =        32.22925639
  PAW double counting   =       247.56105404     -249.42875511
  entropy T*S    EENTRO =        -0.00000000
  eigenvalues    EBANDS =      -142.91123521
  atomic energy  EATOM  =       457.22046137
  Solvation  Ediel_sol  =         0.00000000
  ---------------------------------------------------
  free energy    TOTEN  =       -16.24287451 eV

  energy without entropy =      -16.24287451  energy(sigma->0) =      -16.24287451


--------------------------------------------------------------------------------------------------------




----------------------------------------- Iteration    1(   6)  ---------------------------------------


    POTLOK:  cpu time    0.0440: real time    0.0419
    SETDIJ:  cpu time    0.0000: real time    0.0022
     EDDAV:  cpu time    0.0560: real time    0.0564
       DOS:  cpu time    0.0000: real time    0.0001
    CHARGE:  cpu time    0.0160: real time    0.0160
    MIXING:  cpu time    0.0040: real time    0.0012
    --------------------------------------------
      LOOP:  cpu time    0.1200: real time    0.1241

 eigenvalue-minimisations  :    48
 total energy-change (2. order) : 0.1857799E+01  (-0.9314824E+00)
 number of electron       8.0000122 magnetization 
 augmentation part        0.6957903 magnetization 

 Broyden mixing:
  rms(total) = 0.30544E+00    rms(broyden)= 0.30477E+00
  rms(prec ) = 0.40023E+00
  weight for this iteration     100.00

 eigenvalues of (default mixing * dielectric matrix)
  average eigenvalue GAMMA=   0.9082
  0.9082

 Free energy of the ion-electron system (eV)
  ---------------------------------------------------
  alpha Z        PSCENC =         0.44832783
  Ewald energy   TEWEN  =        23.12739290
  -Hartree energ DENC   =      -408.33606583
  -exchange      EXHF   =         0.00000000
  -V(xc)+E(xc)   XCENC  =        33.56501099
  PAW double counting   =       302.25389022     -304.45701234
  entropy T*S    EENTRO =        -0.00000000
  eigenvalues    EBANDS =      -118.20708112
  atomic energy  EATOM  =       457.22046137
  Solvation  Ediel_sol  =         0.00000000
  ---------------------------------------------------
  free energy    TOTEN  =       -14.38507600 eV

  energy without entropy =      -14.38507600  energy(sigma->0) =      -14.38507600


--------------------------------------------------------------------------------------------------------




----------------------------------------- Iteration    1(   7)  ---------------------------------------


    POTLOK:  cpu time    0.0440: real time    0.0413
    SETDIJ:  cpu time    0.0040: real time    0.0022
     EDDAV:  cpu time    0.0520: real time    0.0542
       DOS:  cpu time    0.0000: real time    0.0001
    CHARGE:  cpu time    0.0160: real time    0.0160
    MIXING:  cpu time    0.0000: real time    0.0012
    --------------------------------------------
      LOOP:  cpu time    0.1160: real time    0.1211

 eigenvalue-minimisations  :    48
 total energy-change (2. order) : 0.1068114E+00  (-0.3885423E-02)
 number of electron       8.0000121 magnetization 
 augmentation part        0.6922257 magnetization 

 Broyden mixing:
  rms(total) = 0.18664E+00    rms(broyden)= 0.18661E+00
  rms(prec ) = 0.25289E+00
  weight for this iteration     100.00

 eigenvalues of (default mixing * dielectric matrix)
  average eigenvalue GAMMA=   1.7296
  1.0256  2.4336

 Free energy of the ion-electron system (eV)
  ---------------------------------------------------
  alpha Z        PSCENC =         0.44832783
  Ewald energy   TEWEN  =        23.12739290
  -Hartree energ DENC   =      -411.82460753
  -exchange      EXHF   =         0.00000000
  -V(xc)+E(xc)   XCENC  =        33.74515190
  PAW double counting   =       314.60761210     -316.77683734
  entropy T*S    EENTRO =        -0.00000000
  eigenvalues    EBANDS =      -114.82576576
  atomic energy  EATOM  =       457.22046137
  Solvation  Ediel_sol  =         0.00000000
  ---------------------------------------------------
  free energy    TOTEN  =       -14.27826455 eV

  energy without entropy =      -14.27826455  energy(sigma->0) =      -14.27826455


--------------------------------------------------------------------------------------------------------




----------------------------------------- Iteration    1(   8)  ---------------------------------------


    POTLOK:  cpu time    0.0400: real time    0.0407
    SETDIJ:  cpu time    0.0040: real time    0.0022
     EDDAV:  cpu time    0.0560: real time    0.0544
       DOS:  cpu time    0.0000: real time    0.0001
    CHARGE:  cpu time    0.0160: real time    0.0160
    MIXING:  cpu time    0.0000: real time    0.0012
    --------------------------------------------
      LOOP:  cpu time    0.1200: real time    0.1210

 eigenvalue-minimisations  :    48
 total energy-change (2. order) : 0.7752311E-01  (-0.7580198E-02)
 number of electron       8.0000121 magnetization 
 augmentation part        0.6888595 magnetization 

 Broyden mixing:
  rms(total) = 0.20915E-01    rms(broyden)= 0.20892E-01
  rms(prec ) = 0.50815E-01
  weight for this iteration     100.00

 eigenvalues of (default mixing * dielectric matrix)
  average eigenvalue GAMMA=   1.6710
  1.0097  2.2529  1.7505

 Free energy of the ion-electron system (eV)
  ---------------------------------------------------
  alpha Z        PSCENC =         0.44832783
  Ewald energy   TEWEN  =        23.12739290
  -Hartree energ DENC   =      -417.48542787
  -exchange      EXHF   =         0.00000000
  -V(xc)+E(xc)   XCENC  =        34.05900402
  PAW double counting   =       333.05602806     -335.17081087
  entropy T*S    EENTRO =        -0.00000000
  eigenvalues    EBANDS =      -109.45571687
  atomic energy  EATOM  =       457.22046137
  Solvation  Ediel_sol  =         0.00000000
  ---------------------------------------------------
  free energy    TOTEN  =       -14.20074144 eV

  energy without entropy =      -14.20074144  energy(sigma->0) =      -14.20074144


--------------------------------------------------------------------------------------------------------




----------------------------------------- Iteration    1(   9)  ---------------------------------------


    POTLOK:  cpu time    0.0440: real time    0.0402
    SETDIJ:  cpu time    0.0000: real time    0.0022
     EDDAV:  cpu time    0.0760: real time    0.0748
       DOS:  cpu time    0.0000: real time    0.0001
    CHARGE:  cpu time    0.0160: real time    0.0159
    MIXING:  cpu time    0.0000: real time    0.0012
    --------------------------------------------
      LOOP:  cpu time    0.1360: real time    0.1405

 eigenvalue-minimisations  :    64
 total energy-change (2. order) :-0.8925657E-02  (-0.4694015E-03)
 number of electron       8.0000121 magnetization 
 augmentation part        0.6871472 magnetization 

 Broyden mixing:
  rms(total) = 0.10509E-01    rms(broyden)= 0.10504E-01
  rms(prec ) = 0.24546E-01
  weight for this iteration     100.00

 eigenvalues of (default mixing * dielectric matrix)
  average eigenvalue GAMMA=   1.9228
  1.0009  1.0009  3.2186  2.4707

 Free energy of the ion-electron system (eV)
  ---------------------------------------------------
  alpha Z        PSCENC =         0.44832783
  Ewald energy   TEWEN  =        23.12739290
  -Hartree energ DENC   =      -418.22453884
  -exchange      EXHF   =         0.00000000
  -V(xc)+E(xc)   XCENC  =        34.06425678
  PAW double counting   =       328.63271298     -330.74590489
  entropy T*S    EENTRO =        -0.00000000
  eigenvalues    EBANDS =      -108.73237521
  atomic energy  EATOM  =       457.22046137
  Solvation  Ediel_sol  =         0.00000000
  ---------------------------------------------------
  free energy    TOTEN  =       -14.20966709 eV

  energy without entropy =      -14.20966709  energy(sigma->0) =      -14.20966709


--------------------------------------------------------------------------------------------------------




----------------------------------------- Iteration    1(  10)  ---------------------------------------


    POTLOK:  cpu time    0.0400: real time    0.0399
    SETDIJ:  cpu time    0.0000: real time    0.0022
     EDDAV:  cpu time    0.0400: real time    0.0377
       DOS:  cpu time    0.0000: real time    0.0001
    CHARGE:  cpu time    0.0160: real time    0.0159
    MIXING:  cpu time    0.0000: real time    0.0013
    --------------------------------------------
      LOOP:  cpu time    0.1000: real time    0.1027

 eigenvalue-minimisations  :    32
 total energy-change (2. order) :-0.4639139E-02  (-0.1464234E-03)
 number of electron       8.0000121 magnetization 
 augmentation part        0.6876385 magnetization 

 Broyden mixing:
  rms(total) = 0.49981E-02    rms(broyden)= 0.49954E-02
  rms(prec ) = 0.12425E-01
  weight for this iteration     100.00

 eigenvalues of (default mixing * dielectric matrix)
  average eigenvalue GAMMA=   2.2596
  4.1124  1.0036  1.0036  2.5893  2.5893

 Free energy of the ion-electron system (eV)
  ---------------------------------------------------
  alpha Z        PSCENC =         0.44832783
  Ewald energy   TEWEN  =        23.12739290
  -Hartree energ DENC   =      -418.66871487
  -exchange      EXHF   =         0.00000000
  -V(xc)+E(xc)   XCENC  =        34.07472242
  PAW double counting   =       328.03662600     -330.14386902
  entropy T*S    EENTRO =        -0.00000000
  eigenvalues    EBANDS =      -108.30925286
  atomic energy  EATOM  =       457.22046137
  Solvation  Ediel_sol  =         0.00000000
  ---------------------------------------------------
  free energy    TOTEN  =       -14.21430623 eV

  energy without entropy =      -14.21430623  energy(sigma->0) =      -14.21430623


--------------------------------------------------------------------------------------------------------




----------------------------------------- Iteration    1(  11)  ---------------------------------------


    POTLOK:  cpu time    0.0400: real time    0.0390
    SETDIJ:  cpu time    0.0000: real time    0.0022
     EDDAV:  cpu time    0.0760: real time    0.0764
       DOS:  cpu time    0.0000: real time    0.0001
    CHARGE:  cpu time    0.0160: real time    0.0160
    MIXING:  cpu time    0.0040: real time    0.0013
    --------------------------------------------
      LOOP:  cpu time    0.1400: real time    0.1417

 eigenvalue-minimisations  :    64
 total energy-change (2. order) :-0.7518894E-02  (-0.2631053E-03)
 number of electron       8.0000121 magnetization 
 augmentation part        0.6867945 magnetization 

 Broyden mixing:
  rms(total) = 0.33765E-02    rms(broyden)= 0.33738E-02
  rms(prec ) = 0.56560E-02
  weight for this iteration     100.00

 eigenvalues of (default mixing * dielectric matrix)
  average eigenvalue GAMMA=   2.2040
  4.4634  3.0751  2.2886  1.0024  1.0024  1.3923

 Free energy of the ion-electron system (eV)
  ---------------------------------------------------
  alpha Z        PSCENC =         0.44832783
  Ewald energy   TEWEN  =        23.12739290
  -Hartree energ DENC   =      -418.89625033
  -exchange      EXHF   =         0.00000000
  -V(xc)+E(xc)   XCENC  =        34.07676667
  PAW double counting   =       329.09376427     -331.20359100
  entropy T*S    EENTRO =        -0.00000000
  eigenvalues    EBANDS =      -108.08869684
  atomic energy  EATOM  =       457.22046137
  Solvation  Ediel_sol  =         0.00000000
  ---------------------------------------------------
  free energy    TOTEN  =       -14.22182513 eV

  energy without entropy =      -14.22182513  energy(sigma->0) =      -14.22182513


--------------------------------------------------------------------------------------------------------




----------------------------------------- Iteration    1(  12)  ---------------------------------------


    POTLOK:  cpu time    0.0400: real time    0.0388
    SETDIJ:  cpu time    0.0000: real time    0.0022
     EDDAV:  cpu time    0.0400: real time    0.0377
       DOS:  cpu time    0.0000: real time    0.0001
    CHARGE:  cpu time    0.0160: real time    0.0160
    MIXING:  cpu time    0.0000: real time    0.0014
    --------------------------------------------
      LOOP:  cpu time    0.0960: real time    0.1018

 eigenvalue-minimisations  :    32
 total energy-change (2. order) :-0.9613615E-03  (-0.4206123E-04)
 number of electron       8.0000121 magnetization 
 augmentation part        0.6876600 magnetization 

 Broyden mixing:
  rms(total) = 0.18239E-02    rms(broyden)= 0.18211E-02
  rms(prec ) = 0.33464E-02
  weight for this iteration     100.00

 eigenvalues of (default mixing * dielectric matrix)
  average eigenvalue GAMMA=   2.4331
  5.6525  3.3775  2.7200  2.3238  1.0403  0.9588  0.9588

 Free energy of the ion-electron system (eV)
  ---------------------------------------------------
  alpha Z        PSCENC =         0.44832783
  Ewald energy   TEWEN  =        23.12739290
  -Hartree energ DENC   =      -418.68627695
  -exchange      EXHF   =         0.00000000
  -V(xc)+E(xc)   XCENC  =        34.06377952
  PAW double counting   =       328.62315929     -330.73118115
  entropy T*S    EENTRO =        -0.00000000
  eigenvalues    EBANDS =      -108.28844930
  atomic energy  EATOM  =       457.22046137
  Solvation  Ediel_sol  =         0.00000000
  ---------------------------------------------------
  free energy    TOTEN  =       -14.22278649 eV

  energy without entropy =      -14.22278649  energy(sigma->0) =      -14.22278649


--------------------------------------------------------------------------------------------------------




----------------------------------------- Iteration    1(  13)  ---------------------------------------


    POTLOK:  cpu time    0.0360: real time    0.0391
    SETDIJ:  cpu time    0.0040: real time    0.0022
     EDDAV:  cpu time    0.0760: real time    0.0745
       DOS:  cpu time    0.0000: real time    0.0001
    CHARGE:  cpu time    0.0160: real time    0.0160
    MIXING:  cpu time    0.0000: real time    0.0015
    --------------------------------------------
      LOOP:  cpu time    0.1320: real time    0.1412

 eigenvalue-minimisations  :    64
 total energy-change (2. order) :-0.8255146E-03  (-0.1826838E-04)
 number of electron       8.0000121 magnetization 
 augmentation part        0.6872838 magnetization 

 Broyden mixing:
  rms(total) = 0.54359E-03    rms(broyden)= 0.54268E-03
  rms(prec ) = 0.82276E-03
  weight for this iteration     100.00

 eigenvalues of (default mixing * dielectric matrix)
  average eigenvalue GAMMA=   2.2488
  5.7740  3.2437  2.5840  2.1840  1.3478  1.0000  1.0000  0.8573

 Free energy of the ion-electron system (eV)
  ---------------------------------------------------
  alpha Z        PSCENC =         0.44832783
  Ewald energy   TEWEN  =        23.12739290
  -Hartree energ DENC   =      -418.74414769
  -exchange      EXHF   =         0.00000000
  -V(xc)+E(xc)   XCENC  =        34.06666873
  PAW double counting   =       328.78852875     -330.89683927
  entropy T*S    EENTRO =        -0.00000000
  eigenvalues    EBANDS =      -108.23400463
  atomic energy  EATOM  =       457.22046137
  Solvation  Ediel_sol  =         0.00000000
  ---------------------------------------------------
  free energy    TOTEN  =       -14.22361200 eV

  energy without entropy =      -14.22361200  energy(sigma->0) =      -14.22361200


--------------------------------------------------------------------------------------------------------




----------------------------------------- Iteration    1(  14)  ---------------------------------------


    POTLOK:  cpu time    0.0360: real time    0.0393
    SETDIJ:  cpu time    0.0040: real time    0.0022
     EDDAV:  cpu time    0.0760: real time    0.0745
       DOS:  cpu time    0.0000: real time    0.0001
    CHARGE:  cpu time    0.0160: real time    0.0160
    MIXING:  cpu time    0.0000: real time    0.0016
    --------------------------------------------
      LOOP:  cpu time    0.1360: real time    0.1397

 eigenvalue-minimisations  :    64
 total energy-change (2. order) :-0.4190946E-04  (-0.1766798E-06)
 number of electron       8.0000121 magnetization 
 augmentation part        0.6872486 magnetization 

 Broyden mixing:
  rms(total) = 0.35281E-03    rms(broyden)= 0.35255E-03
  rms(prec ) = 0.61246E-03
  weight for this iteration     100.00

 eigenvalues of (default mixing * dielectric matrix)
  average eigenvalue GAMMA=   2.4291
  6.3140  4.0733  2.9034  2.4908  2.0818  1.0962  0.9843  0.9843  0.9335

 Free energy of the ion-electron system (eV)
  ---------------------------------------------------
  alpha Z        PSCENC =         0.44832783
  Ewald energy   TEWEN  =        23.12739290
  -Hartree energ DENC   =      -418.73883370
  -exchange      EXHF   =         0.00000000
  -V(xc)+E(xc)   XCENC  =        34.06636147
  PAW double counting   =       328.76143379     -330.86993391
  entropy T*S    EENTRO =        -0.00000000
  eigenvalues    EBANDS =      -108.23886366
  atomic energy  EATOM  =       457.22046137
  Solvation  Ediel_sol  =         0.00000000
  ---------------------------------------------------
  free energy    TOTEN  =       -14.22365391 eV

  energy without entropy =      -14.22365391  energy(sigma->0) =      -14.22365391


--------------------------------------------------------------------------------------------------------




----------------------------------------- Iteration    1(  15)  ---------------------------------------


    POTLOK:  cpu time    0.0400: real time    0.0401
    SETDIJ:  cpu time    0.0000: real time    0.0022
     EDDAV:  cpu time    0.0560: real time    0.0546
       DOS:  cpu time    0.0000: real time    0.0001
    CHARGE:  cpu time    0.0160: real time    0.0160
    MIXING:  cpu time    0.0000: real time    0.0016
    --------------------------------------------
      LOOP:  cpu time    0.1160: real time    0.1201

 eigenvalue-minimisations  :    48
 total energy-change (2. order) :-0.9390576E-04  (-0.1144837E-05)
 number of electron       8.0000121 magnetization 
 augmentation part        0.6873176 magnetization 

 Broyden mixing:
  rms(total) = 0.92360E-04    rms(broyden)= 0.92001E-04
  rms(prec ) = 0.15602E-03
  weight for this iteration     100.00

 eigenvalues of (default mixing * dielectric matrix)
  average eigenvalue GAMMA=   2.4462
  6.3562  4.2268  3.0856  2.5822  2.5207  1.7165  1.0684  0.9729  0.9729  0.9595

 Free energy of the ion-electron system (eV)
  ---------------------------------------------------
  alpha Z        PSCENC =         0.44832783
  Ewald energy   TEWEN  =        23.12739290
  -Hartree energ DENC   =      -418.71995090
  -exchange      EXHF   =         0.00000000
  -V(xc)+E(xc)   XCENC  =        34.06542617
  PAW double counting   =       328.71165250     -330.81993202
  entropy T*S    EENTRO =        -0.00000000
  eigenvalues    EBANDS =      -108.25712566
  atomic energy  EATOM  =       457.22046137
  Solvation  Ediel_sol  =         0.00000000
  ---------------------------------------------------
  free energy    TOTEN  =       -14.22374782 eV

  energy without entropy =      -14.22374782  energy(sigma->0) =      -14.22374782


--------------------------------------------------------------------------------------------------------




----------------------------------------- Iteration    1(  16)  ---------------------------------------


    POTLOK:  cpu time    0.0400: real time    0.0403
    SETDIJ:  cpu time    0.0000: real time    0.0022
     EDDAV:  cpu time    0.0800: real time    0.0763
       DOS:  cpu time    0.0000: real time    0.0001
    --------------------------------------------
      LOOP:  cpu time    0.1240: real time    0.1250

 eigenvalue-minimisations  :    64
 total energy-change (2. order) :-0.6902684E-05  (-0.9344545E-07)
 number of electron       8.0000121 magnetization 
 augmentation part        0.6873176 magnetization 

 Free energy of the ion-electron system (eV)
  ---------------------------------------------------
  alpha Z        PSCENC =         0.44832783
  Ewald energy   TEWEN  =        23.12739290
  -Hartree energ DENC   =      -418.72469618
  -exchange      EXHF   =         0.00000000
  -V(xc)+E(xc)   XCENC  =        34.06571147
  PAW double counting   =       328.73411595     -330.84247308
  entropy T*S    EENTRO =        -0.00000000
  eigenvalues    EBANDS =      -108.25259498
  atomic energy  EATOM  =       457.22046137
  Solvation  Ediel_sol  =         0.00000000
  ---------------------------------------------------
  free energy    TOTEN  =       -14.22375472 eV

  energy without entropy =      -14.22375472  energy(sigma->0) =      -14.22375472


--------------------------------------------------------------------------------------------------------




 average (electrostatic) potential at core
  the test charge radii are     0.7215  0.5201
  (the norm of the test charge is              1.0000)
       1 -80.4552       2 -44.4831       3 -44.4831
 
 
 
 E-fermi :  -6.0801     XC(G=0):  -0.9986     alpha+bet : -0.2602


 k-point     1 :       0.0000    0.0000    0.0000
  band No.  band energies     occupation 
      1     -25.1118      2.00000
      2     -12.9035      2.00000
      3      -9.0915      2.00000
      4      -7.0196      2.00000
      5      -1.0762      0.00000
      6       1.1576      0.00000
      7       1.2391      0.00000
      8       1.7546      0.00000
      9       1.7852      0.00000
     10       2.0043      0.00000
     11       2.0874      0.00000
     12       3.0827      0.00000
     13       3.7733      0.00000
     14       3.8561      0.00000
     15       3.8914      0.00000
     16       4.0948      0.00000


--------------------------------------------------------------------------------------------------------


 soft charge-density along one line, spin component           1
         0         1         2         3         4         5         6         7         8         9
 total charge-density along one line
 
 pseudopotential strength for first ion, spin component:           1
 13.785  -0.525  -0.000  -0.000  -0.121   0.000   0.000   0.006
 -0.525   0.119   0.000   0.000   0.015  -0.000  -0.000  -0.002
 -0.000   0.000 -10.565   0.000  -0.000   0.293  -0.000   0.000
 -0.000   0.000   0.000 -10.327  -0.000  -0.000   0.253   0.000
 -0.121   0.015  -0.000  -0.000 -10.469   0.000   0.000   0.277
  0.000  -0.000   0.293  -0.000   0.000   0.126   0.000  -0.000
  0.000  -0.000  -0.000   0.253   0.000   0.000   0.138  -0.000
  0.006  -0.002   0.000   0.000   0.277  -0.000  -0.000   0.131
 total augmentation occupancy for first ion, spin component:           1
  1.859   0.207   0.000   0.000  -0.169   0.000   0.000   0.053
  0.207   0.047   0.000   0.000   0.172   0.000   0.000   0.032
  0.000   0.000   1.409   0.000   0.000   0.268   0.000   0.000
  0.000   0.000   0.000   1.811   0.000   0.000   0.113   0.000
 -0.169   0.172   0.000   0.000   1.568   0.000   0.000   0.208
  0.000   0.000   0.268   0.000   0.000   0.051   0.000   0.000
  0.000   0.000   0.000   0.113   0.000   0.000   0.007   0.000
  0.053   0.032   0.000   0.000   0.208   0.000   0.000   0.031


------------------------ aborting loop because EDIFF is reached ----------------------------------------


    CHARGE:  cpu time    0.0160: real time    0.0154
    FORLOC:  cpu time    0.0000: real time    0.0026
    FORNL :  cpu time    0.0040: real time    0.0027
    STRESS:  cpu time    0.0680: real time    0.0661
    FORHAR:  cpu time    0.0080: real time    0.0102
    MIXING:  cpu time    0.0000: real time    0.0018
    OFIELD:  cpu time    0.0000: real time    0.0001

  FORCE on cell =-STRESS in cart. coord.  units (eV):
  Direction    XX          YY          ZZ          XY          YZ          ZX
  --------------------------------------------------------------------------------------
  Alpha Z     0.44833     0.44833     0.44833
  Ewald      12.09482    66.33995   -55.30741    -0.00000     0.00000     0.00000
  Hartree   140.55301   149.93170   128.23132    -0.00000    -0.00000    -0.00000
  E(xc)     -36.09705   -35.89978   -36.39301    -0.00000     0.00000    -0.00000
  Local    -242.10468  -290.61525  -183.04265    -0.00000     0.00000    -0.00000
  n-local   -31.29349   -30.43917   -31.19424    -0.00000    -0.00000     0.00000
  augment     6.72223     5.76745     8.13465     0.00000     0.00000     0.00000
  Kinetic   148.85608   133.74316   168.23151     0.00000     0.00000    -0.00000
  Fock        0.00000     0.00000     0.00000     0.00000     0.00000     0.00000
  -------------------------------------------------------------------------------------
  Total      -0.82075    -0.72362    -0.89150     0.00000     0.00000     0.00000
  in kB      -2.62929    -2.31812    -2.85592     0.00000     0.00000     0.00000
  external pressure =       -2.60 kB  Pullay stress =        0.00 kB


 VOLUME and BASIS-vectors are now :
 -----------------------------------------------------------------------------
  energy-cutoff  :      400.00
  volume of cell :      500.13
      direct lattice vectors                 reciprocal lattice vectors
     7.937700000  0.000000000  0.000000000     0.125981078  0.000000000  0.000000000
     0.000000000  7.937700000  0.000000000     0.000000000  0.125981078  0.000000000
     0.000000000  0.000000000  7.937700000     0.000000000  0.000000000  0.125981078

  length of vectors
     7.937700000  7.937700000  7.937700000     0.125981078  0.125981078  0.125981078


 FORCES acting on ions
    electron-ion (+dipol)            ewald-force                    non-local-force                 convergence-correction
 -----------------------------------------------------------------------------------------------
   0.621E+02 0.685E-15 -.520E-15   -.111E+03 0.426E-13 -.587E-16   0.490E+02 0.000E+00 0.000E+00   -.945E-03 -.164E-13 -.271E-14
   -.507E+02 0.708E+02 -.167E-06   0.556E+02 -.775E+02 0.424E-17   -.484E+01 0.670E+01 0.000E+00   -.329E-03 0.361E-03 -.153E-16
   -.507E+02 -.708E+02 0.159E-06   0.556E+02 0.775E+02 0.149E-17   -.484E+01 -.670E+01 0.000E+00   -.329E-03 -.361E-03 0.184E-14
 -----------------------------------------------------------------------------------------------
   -.394E+02 0.142E-13 -.815E-08   0.000E+00 0.000E+00 -.530E-16   0.394E+02 -.888E-15 0.000E+00   -.160E-02 -.170E-13 -.886E-15
 
 
 POSITION                                       TOTAL-FORCE (eV/Angst)
 -----------------------------------------------------------------------------------
      0.00000      0.00000      0.00000        -0.002907      0.000000      0.000000
      0.59636      7.16918      0.00000         0.001454     -0.000012      0.000000
      0.59636      0.76852      0.00000         0.001454      0.000012      0.000000
 -----------------------------------------------------------------------------------
    total drift:                               -0.000815     -0.000000     -0.000000


--------------------------------------------------------------------------------------------------------



  FREE ENERGIE OF THE ION-ELECTRON SYSTEM (eV)
  ---------------------------------------------------
  free  energy   TOTEN  =       -14.22375472 eV

  energy  without entropy=      -14.22375472  energy(sigma->0) =      -14.22375472
 


--------------------------------------------------------------------------------------------------------


    POTLOK:  cpu time    0.0440: real time    0.0457


--------------------------------------------------------------------------------------------------------


 Finite differences:
   Step               POTIM =   2.000000000000000E-002
   Degrees of freedom DOF   =            6
  LATTYP: Found a simple cubic cell.
 ALAT       =     7.9377000000
  
  Lattice vectors:
  
 A1 = (   7.9377000000,   0.0000000000,   0.0000000000)
 A2 = (   0.0000000000,   7.9377000000,   0.0000000000)
 A3 = (   0.0000000000,   0.0000000000,   7.9377000000)


Analysis of symmetry for initial positions (statically):
=====================================================================
 Subroutine PRICEL returns:
 Original cell was already a primitive cell.
 

 Routine SETGRP: Setting up the symmetry group for a 
 simple cubic supercell.


 Subroutine GETGRP returns: Found  4 space group operations
 (whereof  4 operations were pure point group operations)
 out of a pool of 48 trial point group operations.


The static configuration has the point symmetry C_2v.


Analysis of symmetry for dynamics (positions and initial velocities):
=====================================================================
 Subroutine PRICEL returns:
 Original cell was already a primitive cell.
 

 Routine SETGRP: Setting up the symmetry group for a 
 simple cubic supercell.


 Subroutine GETGRP returns: Found  4 space group operations
 (whereof  4 operations were pure point group operations)
 out of a pool of 48 trial point group operations.


The dynamic configuration has the point symmetry C_2v.


Analysis of constrained symmetry for selective dynamics:
=====================================================================
 Subroutine PRICEL returns:
 Original cell was already a primitive cell.
 

 Routine SETGRP: Setting up the symmetry group for a 
 simple cubic supercell.


 Subroutine GETGRP returns: Found  4 space group operations
 (whereof  4 operations were pure point group operations)
 out of a pool of 48 trial point group operations.


The constrained configuration has the point symmetry C_2v.
 
 KPOINTS: Gamma-point only                        
  k-points in reciprocal lattice
Space group operators:
 irot       det(A)        alpha          n_x          n_y          n_z        tau_x        tau_y        tau_z
    1     1.000000     0.000001     1.000000     0.000000     0.000000     0.000000     0.000000     0.000000
    2    -1.000000   180.000000     0.000000     0.000000     1.000000     0.000000     0.000000     0.000000
    3     1.000000   180.000000     1.000000     0.000000     0.000000     0.000000     0.000000     0.000000
    4    -1.000000   180.000000     0.000000     1.000000     0.000000     0.000000     0.000000     0.000000
    WAVPRE:  cpu time    0.0080: real time    0.0057
 FEWALD executed in parallel
    FEWALD:  cpu time    0.0000: real time    0.0004
    ORTHCH:  cpu time    0.0040: real time    0.0036
     LOOP+:  cpu time    3.6122: real time    3.7326


----------------------------------------- Iteration    2(   1)  ---------------------------------------


    POTLOK:  cpu time    0.0400: real time    0.0408
    SETDIJ:  cpu time    0.0040: real time    0.0022
     EDDAV:  cpu time    0.0400: real time    0.0385
       DOS:  cpu time    0.0000: real time    0.0001
    CHARGE:  cpu time    0.0160: real time    0.0161
    MIXING:  cpu time    0.0000: real time    0.0009
    --------------------------------------------
      LOOP:  cpu time    0.1000: real time    0.1026

 eigenvalue-minimisations  :    32
 total energy-change (2. order) : 0.7767214E-02  (-0.2295760E+00)
 number of electron       8.0000095 magnetization 
 augmentation part        0.6973000 magnetization 

 Broyden mixing:
  rms(total) = 0.37460E-01    rms(broyden)= 0.37050E-01
  rms(prec ) = 0.47173E-01
  weight for this iteration     100.00

 Free energy of the ion-electron system (eV)
  ---------------------------------------------------
  alpha Z        PSCENC =         0.44832783
  Ewald energy   TEWEN  =        25.35409084
  -Hartree energ DENC   =      -419.61940690
  -exchange      EXHF   =         0.00000000
  -V(xc)+E(xc)   XCENC  =        34.10337800
  PAW double counting   =       328.72968800     -330.83800922
  entropy T*S    EENTRO =        -0.00000000
  eigenvalues    EBANDS =      -109.61451052
  atomic energy  EATOM  =       457.22046137
  Solvation  Ediel_sol  =         0.00000000
  ---------------------------------------------------
  free energy    TOTEN  =       -14.21598061 eV

  energy without entropy =      -14.21598061  energy(sigma->0) =      -14.21598061


--------------------------------------------------------------------------------------------------------




----------------------------------------- Iteration    2(   2)  ---------------------------------------


    POTLOK:  cpu time    0.0440: real time    0.0430
    SETDIJ:  cpu time    0.0040: real time    0.0022
     EDDAV:  cpu time    0.0560: real time    0.0557
       DOS:  cpu time    0.0000: real time    0.0001
    CHARGE:  cpu time    0.0160: real time    0.0160
    MIXING:  cpu time    0.0000: real time    0.0010
    --------------------------------------------
      LOOP:  cpu time    0.1200: real time    0.1248

 eigenvalue-minimisations  :    48
 total energy-change (2. order) : 0.7614671E-03  (-0.2533428E-02)
 number of electron       8.0000095 magnetization 
 augmentation part        0.6940900 magnetization 

 Broyden mixing:
  rms(total) = 0.14653E-01    rms(broyden)= 0.14584E-01
  rms(prec ) = 0.18013E-01
  weight for this iteration     100.00

 eigenvalues of (default mixing * dielectric matrix)
  average eigenvalue GAMMA=   1.2121
  1.2121

 Free energy of the ion-electron system (eV)
  ---------------------------------------------------
  alpha Z        PSCENC =         0.44832783
  Ewald energy   TEWEN  =        25.35409084
  -Hartree energ DENC   =      -420.33733563
  -exchange      EXHF   =         0.00000000
  -V(xc)+E(xc)   XCENC  =        34.14553311
  PAW double counting   =       330.75687116     -332.87895999
  entropy T*S    EENTRO =        -0.00000000
  eigenvalues    EBANDS =      -108.92420781
  atomic energy  EATOM  =       457.22046137
  Solvation  Ediel_sol  =         0.00000000
  ---------------------------------------------------
  free energy    TOTEN  =       -14.21521914 eV

  energy without entropy =      -14.21521914  energy(sigma->0) =      -14.21521914


--------------------------------------------------------------------------------------------------------




----------------------------------------- Iteration    2(   3)  ---------------------------------------


    POTLOK:  cpu time    0.0440: real time    0.0431
    SETDIJ:  cpu time    0.0040: real time    0.0022
     EDDAV:  cpu time    0.0520: real time    0.0544
       DOS:  cpu time    0.0000: real time    0.0001
    CHARGE:  cpu time    0.0160: real time    0.0161
    MIXING:  cpu time    0.0000: real time    0.0010
    --------------------------------------------
      LOOP:  cpu time    0.1200: real time    0.1226

 eigenvalue-minimisations  :    48
 total energy-change (2. order) : 0.3662196E-04  (-0.3818089E-04)
 number of electron       8.0000095 magnetization 
 augmentation part        0.6940907 magnetization 

 Broyden mixing:
  rms(total) = 0.71663E-02    rms(broyden)= 0.71601E-02
  rms(prec ) = 0.87106E-02
  weight for this iteration     100.00

 eigenvalues of (default mixing * dielectric matrix)
  average eigenvalue GAMMA=   1.6322
  1.0239  2.2405

 Free energy of the ion-electron system (eV)
  ---------------------------------------------------
  alpha Z        PSCENC =         0.44832783
  Ewald energy   TEWEN  =        25.35409084
  -Hartree energ DENC   =      -420.42686171
  -exchange      EXHF   =         0.00000000
  -V(xc)+E(xc)   XCENC  =        34.15159386
  PAW double counting   =       331.48740520     -333.61351001
  entropy T*S    EENTRO =        -0.00000000
  eigenvalues    EBANDS =      -108.83668987
  atomic energy  EATOM  =       457.22046137
  Solvation  Ediel_sol  =         0.00000000
  ---------------------------------------------------
  free energy    TOTEN  =       -14.21518252 eV

  energy without entropy =      -14.21518252  energy(sigma->0) =      -14.21518252


--------------------------------------------------------------------------------------------------------




----------------------------------------- Iteration    2(   4)  ---------------------------------------


    POTLOK:  cpu time    0.0440: real time    0.0426
    SETDIJ:  cpu time    0.0000: real time    0.0022
     EDDAV:  cpu time    0.0560: real time    0.0545
       DOS:  cpu time    0.0000: real time    0.0001
    CHARGE:  cpu time    0.0160: real time    0.0161
    MIXING:  cpu time    0.0000: real time    0.0011
    --------------------------------------------
      LOOP:  cpu time    0.1200: real time    0.1221

 eigenvalue-minimisations  :    48
 total energy-change (2. order) :-0.1370754E-03  (-0.2607347E-04)
 number of electron       8.0000095 magnetization 
 augmentation part        0.6942033 magnetization 

 Broyden mixing:
  rms(total) = 0.10805E-02    rms(broyden)= 0.10740E-02
  rms(prec ) = 0.14705E-02
  weight for this iteration     100.00

 eigenvalues of (default mixing * dielectric matrix)
  average eigenvalue GAMMA=   1.7719
  1.0265  2.4885  1.8007

 Free energy of the ion-electron system (eV)
  ---------------------------------------------------
  alpha Z        PSCENC =         0.44832783
  Ewald energy   TEWEN  =        25.35409084
  -Hartree energ DENC   =      -420.48591676
  -exchange      EXHF   =         0.00000000
  -V(xc)+E(xc)   XCENC  =        34.15581365
  PAW double counting   =       332.17010473     -334.30047634
  entropy T*S    EENTRO =        -0.00000000
  eigenvalues    EBANDS =      -108.77772490
  atomic energy  EATOM  =       457.22046137
  Solvation  Ediel_sol  =         0.00000000
  ---------------------------------------------------
  free energy    TOTEN  =       -14.21531959 eV

  energy without entropy =      -14.21531959  energy(sigma->0) =      -14.21531959


--------------------------------------------------------------------------------------------------------




----------------------------------------- Iteration    2(   5)  ---------------------------------------


    POTLOK:  cpu time    0.0440: real time    0.0426
    SETDIJ:  cpu time    0.0000: real time    0.0022
     EDDAV:  cpu time    0.0760: real time    0.0749
       DOS:  cpu time    0.0000: real time    0.0001
    CHARGE:  cpu time    0.0160: real time    0.0161
    MIXING:  cpu time    0.0000: real time    0.0012
    --------------------------------------------
      LOOP:  cpu time    0.1360: real time    0.1447

 eigenvalue-minimisations  :    64
 total energy-change (2. order) :-0.1988088E-04  (-0.1242543E-05)
 number of electron       8.0000095 magnetization 
 augmentation part        0.6941635 magnetization 

 Broyden mixing:
  rms(total) = 0.21422E-03    rms(broyden)= 0.21253E-03
  rms(prec ) = 0.51363E-03
  weight for this iteration     100.00

 eigenvalues of (default mixing * dielectric matrix)
  average eigenvalue GAMMA=   1.6326
  2.5439  2.0459  1.0290  0.9117

 Free energy of the ion-electron system (eV)
  ---------------------------------------------------
  alpha Z        PSCENC =         0.44832783
  Ewald energy   TEWEN  =        25.35409084
  -Hartree energ DENC   =      -420.49473844
  -exchange      EXHF   =         0.00000000
  -V(xc)+E(xc)   XCENC  =        34.15624804
  PAW double counting   =       332.28605298     -334.41770791
  entropy T*S    EENTRO =        -0.00000000
  eigenvalues    EBANDS =      -108.76807417
  atomic energy  EATOM  =       457.22046137
  Solvation  Ediel_sol  =         0.00000000
  ---------------------------------------------------
  free energy    TOTEN  =       -14.21533947 eV

  energy without entropy =      -14.21533947  energy(sigma->0) =      -14.21533947


--------------------------------------------------------------------------------------------------------




----------------------------------------- Iteration    2(   6)  ---------------------------------------


    POTLOK:  cpu time    0.0400: real time    0.0423
    SETDIJ:  cpu time    0.0040: real time    0.0022
     EDDAV:  cpu time    0.0360: real time    0.0378
       DOS:  cpu time    0.0000: real time    0.0001
    --------------------------------------------
      LOOP:  cpu time    0.0840: real time    0.0887

 eigenvalue-minimisations  :    32
 total energy-change (2. order) :-0.9833848E-05  (-0.4621529E-07)
 number of electron       8.0000095 magnetization 
 augmentation part        0.6941635 magnetization 

 Free energy of the ion-electron system (eV)
  ---------------------------------------------------
  alpha Z        PSCENC =         0.44832783
  Ewald energy   TEWEN  =        25.35409084
  -Hartree energ DENC   =      -420.49801685
  -exchange      EXHF   =         0.00000000
  -V(xc)+E(xc)   XCENC  =        34.15634345
  PAW double counting   =       332.29312740     -334.42477901
  entropy T*S    EENTRO =        -0.00000000
  eigenvalues    EBANDS =      -108.76490432
  atomic energy  EATOM  =       457.22046137
  Solvation  Ediel_sol  =         0.00000000
  ---------------------------------------------------
  free energy    TOTEN  =       -14.21534931 eV

  energy without entropy =      -14.21534931  energy(sigma->0) =      -14.21534931


--------------------------------------------------------------------------------------------------------




 average (electrostatic) potential at core
  the test charge radii are     0.7215  0.5201
  (the norm of the test charge is              1.0000)
       1 -80.4543       2 -44.6455       3 -44.6455
 
 
 
 E-fermi :  -6.0173     XC(G=0):  -1.0564     alpha+bet : -0.2602


 k-point     1 :       0.0000    0.0000    0.0000
  band No.  band energies     occupation 
      1     -25.2151      2.00000
      2     -13.1096      2.00000
      3      -9.0183      2.00000
      4      -7.0394      2.00000
      5      -1.0602      0.00000
      6       1.0872      0.00000
      7       1.2657      0.00000
      8       1.7371      0.00000
      9       1.7655      0.00000
     10       1.9572      0.00000
     11       2.0522      0.00000
     12       3.0700      0.00000
     13       3.7629      0.00000
     14       3.7643      0.00000
     15       3.8390      0.00000
     16       4.0786      0.00000


--------------------------------------------------------------------------------------------------------


 soft charge-density along one line, spin component           1
         0         1         2         3         4         5         6         7         8         9
 total charge-density along one line
 
 pseudopotential strength for first ion, spin component:           1
 13.786  -0.525  -0.000   0.000  -0.123   0.000  -0.000   0.006
 -0.525   0.119   0.000  -0.000   0.015  -0.000   0.000  -0.003
 -0.000   0.000 -10.569   0.000  -0.000   0.293  -0.000   0.000
  0.000  -0.000   0.000 -10.322  -0.000  -0.000   0.251   0.000
 -0.123   0.015  -0.000  -0.000 -10.460   0.000   0.000   0.275
  0.000  -0.000   0.293  -0.000   0.000   0.127   0.000  -0.000
 -0.000   0.000  -0.000   0.251   0.000   0.000   0.139  -0.000
  0.006  -0.003   0.000   0.000   0.275  -0.000  -0.000   0.132
 total augmentation occupancy for first ion, spin component:           1
  1.855   0.215   0.000   0.000  -0.164   0.000   0.000   0.055
  0.215   0.048   0.000   0.000   0.173   0.000   0.000   0.032
  0.000   0.000   1.420   0.000   0.000   0.276   0.000   0.000
  0.000   0.000   0.000   1.811   0.000   0.000   0.114   0.000
 -0.164   0.173   0.000   0.000   1.585   0.000   0.000   0.208
  0.000   0.000   0.276   0.000   0.000   0.054   0.000   0.000
  0.000   0.000   0.000   0.114   0.000   0.000   0.007   0.000
  0.055   0.032   0.000   0.000   0.208   0.000   0.000   0.031


------------------------ aborting loop because EDIFF is reached ----------------------------------------


    CHARGE:  cpu time    0.0120: real time    0.0146
    FORLOC:  cpu time    0.0040: real time    0.0026
    FORNL :  cpu time    0.0040: real time    0.0027
    STRESS:  cpu time    0.0680: real time    0.0661
    FORHAR:  cpu time    0.0080: real time    0.0101
    MIXING:  cpu time    0.0040: real time    0.0014
    OFIELD:  cpu time    0.0000: real time    0.0001

  FORCE on cell =-STRESS in cart. coord.  units (eV):
  Direction    XX          YY          ZZ          XY          YZ          ZX
  --------------------------------------------------------------------------------------
  Alpha Z     0.44833     0.44833     0.44833
  Ewald      10.05077    70.60248   -55.29920     0.00000    -0.00000     0.00000
  Hartree   140.59533   151.02290   128.88991    -0.00000    -0.00000    -0.00000
  E(xc)     -36.20601   -35.98077   -36.48765    -0.00000     0.00000     0.00000
  Local    -240.61804  -294.65366  -183.83653     0.00000     0.00000     0.00000
  n-local   -31.55576   -30.81203   -31.36620    -0.00000    -0.00000    -0.00000
  augment     6.81005     5.75825     8.17667     0.00000     0.00000     0.00000
  Kinetic   150.13130   133.48840   168.58702    -0.00000     0.00000     0.00000
  Fock        0.00000     0.00000     0.00000     0.00000     0.00000     0.00000
  -------------------------------------------------------------------------------------
  Total      -0.34403    -0.12611    -0.88765     0.00000     0.00000     0.00000
  in kB      -1.10211    -0.40399    -2.84359     0.00000     0.00000     0.00000
  external pressure =       -1.45 kB  Pullay stress =        0.00 kB


 VOLUME and BASIS-vectors are now :
 -----------------------------------------------------------------------------
  energy-cutoff  :      400.00
  volume of cell :      500.13
      direct lattice vectors                 reciprocal lattice vectors
     7.937700000  0.000000000  0.000000000     0.125981078  0.000000000  0.000000000
     0.000000000  7.937700000  0.000000000     0.000000000  0.125981078  0.000000000
     0.000000000  0.000000000  7.937700000     0.000000000  0.000000000  0.125981078

  length of vectors
     7.937700000  7.937700000  7.937700000     0.125981078  0.125981078  0.125981078


 FORCES acting on ions
    electron-ion (+dipol)            ewald-force                    non-local-force                 convergence-correction
 -----------------------------------------------------------------------------------------------
   0.618E+02 -.213E-15 0.160E-04   -.112E+03 0.000E+00 -.543E-16   0.489E+02 0.000E+00 0.000E+00   -.809E-02 -.112E-13 -.553E-14
   -.504E+02 0.727E+02 -.134E-06   0.558E+02 -.802E+02 0.200E-17   -.493E+01 0.710E+01 0.000E+00   -.560E-03 -.718E-03 -.680E-17
   -.504E+02 -.727E+02 0.125E-06   0.558E+02 0.802E+02 -.742E-18   -.493E+01 -.710E+01 0.000E+00   -.560E-03 0.718E-03 0.939E-15
 -----------------------------------------------------------------------------------------------
   -.390E+02 0.568E-13 0.160E-04   0.000E+00 0.000E+00 -.530E-16   0.390E+02 0.000E+00 0.000E+00   -.921E-02 -.121E-13 -.459E-14
 
 
 POSITION                                       TOTAL-FORCE (eV/Angst)
 -----------------------------------------------------------------------------------
      0.02000      0.00000      0.00000        -0.836479      0.000000      0.000000
      0.59636      7.16918      0.00000         0.418240     -0.388664      0.000000
      0.59636      0.76852      0.00000         0.418240      0.388664      0.000000
 -----------------------------------------------------------------------------------
    total drift:                               -0.005118      0.000000      0.000016


--------------------------------------------------------------------------------------------------------



  FREE ENERGIE OF THE ION-ELECTRON SYSTEM (eV)
  ---------------------------------------------------
  free  energy   TOTEN  =       -14.21534931 eV

  energy  without entropy=      -14.21534931  energy(sigma->0) =      -14.21534931
 
 d Force =-0.8393864E-02[-0.167E-01,-0.581E-04]  d Energy =-0.8405416E-02 0.116E-04
 d Force =-0.2226419E+01[-0.223E+01,-0.222E+01]  d Ewald  =-0.2226698E+01 0.279E-03


--------------------------------------------------------------------------------------------------------


    POTLOK:  cpu time    0.0440: real time    0.0472


--------------------------------------------------------------------------------------------------------


 Finite differences progress:
  Degree of freedom:   1/  6
  Displacement:        1/  2
  Total:               1/ 12
  LATTYP: Found a simple cubic cell.
 ALAT       =     7.9377000000
  
  Lattice vectors:
  
 A1 = (   7.9377000000,   0.0000000000,   0.0000000000)
 A2 = (   0.0000000000,   7.9377000000,   0.0000000000)
 A3 = (   0.0000000000,   0.0000000000,   7.9377000000)


Analysis of symmetry for initial positions (statically):
=====================================================================
 Subroutine PRICEL returns:
 Original cell was already a primitive cell.
 

 Routine SETGRP: Setting up the symmetry group for a 
 simple cubic supercell.


 Subroutine GETGRP returns: Found  4 space group operations
 (whereof  4 operations were pure point group operations)
 out of a pool of 48 trial point group operations.


The static configuration has the point symmetry C_2v.


Analysis of symmetry for dynamics (positions and initial velocities):
=====================================================================
 Subroutine PRICEL returns:
 Original cell was already a primitive cell.
 

 Routine SETGRP: Setting up the symmetry group for a 
 simple cubic supercell.


 Subroutine GETGRP returns: Found  4 space group operations
 (whereof  4 operations were pure point group operations)
 out of a pool of 48 trial point group operations.


The dynamic configuration has the point symmetry C_2v.


Analysis of constrained symmetry for selective dynamics:
=====================================================================
 Subroutine PRICEL returns:
[...]

 eigenvalues of (default mixing * dielectric matrix)
  average eigenvalue GAMMA=   1.7913
  3.2396  2.4609  1.8345  0.9990  0.9990  1.2150

 Free energy of the ion-electron system (eV)
  ---------------------------------------------------
  alpha Z        PSCENC =         0.44832783
  Ewald energy   TEWEN  =        24.69489446
  -Hartree energ DENC   =      -419.91229148
  -exchange      EXHF   =         0.00000000
  -V(xc)+E(xc)   XCENC  =        34.12666619
  PAW double counting   =       330.93152521     -333.04715629
  entropy T*S    EENTRO =        -0.00000000
  eigenvalues    EBANDS =      -108.67917002
  atomic energy  EATOM  =       457.22046137
  Solvation  Ediel_sol  =         0.00000000
  ---------------------------------------------------
  free energy    TOTEN  =       -14.21674275 eV

  energy without entropy =      -14.21674275  energy(sigma->0) =      -14.21674275


--------------------------------------------------------------------------------------------------------




----------------------------------------- Iteration   13(   8)  ---------------------------------------


    POTLOK:  cpu time    0.0400: real time    0.0408
    SETDIJ:  cpu time    0.0040: real time    0.0022
     EDDAV:  cpu time    0.0760: real time    0.0751
       DOS:  cpu time    0.0000: real time    0.0001
    CHARGE:  cpu time    0.0160: real time    0.0162
    MIXING:  cpu time    0.0000: real time    0.0013
    --------------------------------------------
      LOOP:  cpu time    0.1360: real time    0.1420

 eigenvalue-minimisations  :    64
 total energy-change (2. order) :-0.1813304E-04  (-0.1294020E-06)
 number of electron       8.0000115 magnetization 
 augmentation part        0.6904343 magnetization 

 Broyden mixing:
  rms(total) = 0.68472E-04    rms(broyden)= 0.68453E-04
  rms(prec ) = 0.13297E-03
  weight for this iteration     100.00

 eigenvalues of (default mixing * dielectric matrix)
  average eigenvalue GAMMA=   2.0767
  4.6878  2.6419  2.3185  1.8890  0.9919  0.9919  1.0159

 Free energy of the ion-electron system (eV)
  ---------------------------------------------------
  alpha Z        PSCENC =         0.44832783
  Ewald energy   TEWEN  =        24.69489446
  -Hartree energ DENC   =      -419.91326865
  -exchange      EXHF   =         0.00000000
  -V(xc)+E(xc)   XCENC  =        34.12672122
  PAW double counting   =       330.92818038     -333.04384709
  entropy T*S    EENTRO =        -0.00000000
  eigenvalues    EBANDS =      -108.67823039
  atomic energy  EATOM  =       457.22046137
  Solvation  Ediel_sol  =         0.00000000
  ---------------------------------------------------
  free energy    TOTEN  =       -14.21676088 eV

  energy without entropy =      -14.21676088  energy(sigma->0) =      -14.21676088


--------------------------------------------------------------------------------------------------------




----------------------------------------- Iteration   13(   9)  ---------------------------------------


    POTLOK:  cpu time    0.0400: real time    0.0417
    SETDIJ:  cpu time    0.0040: real time    0.0023
     EDDAV:  cpu time    0.0520: real time    0.0546
       DOS:  cpu time    0.0000: real time    0.0001
    CHARGE:  cpu time    0.0160: real time    0.0162
    MIXING:  cpu time    0.0040: real time    0.0014
    --------------------------------------------
      LOOP:  cpu time    0.1200: real time    0.1223

 eigenvalue-minimisations  :    48
 total energy-change (2. order) :-0.1216360E-04  (-0.1154668E-06)
 number of electron       8.0000115 magnetization 
 augmentation part        0.6904349 magnetization 

 Broyden mixing:
  rms(total) = 0.21220E-04    rms(broyden)= 0.21217E-04
  rms(prec ) = 0.43798E-04
  weight for this iteration     100.00

 eigenvalues of (default mixing * dielectric matrix)
  average eigenvalue GAMMA=   2.1833
  5.3926  2.9620  2.3650  1.8770  1.8770  0.9920  0.9920  1.0085

 Free energy of the ion-electron system (eV)
  ---------------------------------------------------
  alpha Z        PSCENC =         0.44832783
  Ewald energy   TEWEN  =        24.69489446
  -Hartree energ DENC   =      -419.91311733
  -exchange      EXHF   =         0.00000000
  -V(xc)+E(xc)   XCENC  =        34.12671198
  PAW double counting   =       330.92922593     -333.04495661
  entropy T*S    EENTRO =        -0.00000000
  eigenvalues    EBANDS =      -108.67832066
  atomic energy  EATOM  =       457.22046137
  Solvation  Ediel_sol  =         0.00000000
  ---------------------------------------------------
  free energy    TOTEN  =       -14.21677304 eV

  energy without entropy =      -14.21677304  energy(sigma->0) =      -14.21677304


--------------------------------------------------------------------------------------------------------




----------------------------------------- Iteration   13(  10)  ---------------------------------------


    POTLOK:  cpu time    0.0440: real time    0.0423
    SETDIJ:  cpu time    0.0000: real time    0.0022
     EDDAV:  cpu time    0.0760: real time    0.0750
       DOS:  cpu time    0.0000: real time    0.0001
    --------------------------------------------
      LOOP:  cpu time    0.1200: real time    0.1247

 eigenvalue-minimisations  :    64
 total energy-change (2. order) :-0.2895773E-05  (-0.1433321E-07)
 number of electron       8.0000115 magnetization 
 augmentation part        0.6904349 magnetization 

 Free energy of the ion-electron system (eV)
  ---------------------------------------------------
  alpha Z        PSCENC =         0.44832783
  Ewald energy   TEWEN  =        24.69489446
  -Hartree energ DENC   =      -419.91305387
  -exchange      EXHF   =         0.00000000
  -V(xc)+E(xc)   XCENC  =        34.12670494
  PAW double counting   =       330.92968539     -333.04541699
  entropy T*S    EENTRO =        -0.00000000
  eigenvalues    EBANDS =      -108.67837906
  atomic energy  EATOM  =       457.22046137
  Solvation  Ediel_sol  =         0.00000000
  ---------------------------------------------------
  free energy    TOTEN  =       -14.21677594 eV

  energy without entropy =      -14.21677594  energy(sigma->0) =      -14.21677594


--------------------------------------------------------------------------------------------------------




 average (electrostatic) potential at core
  the test charge radii are     0.7215  0.5201
  (the norm of the test charge is              1.0000)
       1 -80.4701       2 -44.4943       3 -44.6965
 
 
 
 E-fermi :  -6.0225     XC(G=0):  -1.0180     alpha+bet : -0.2602


 k-point     1 :       0.0000    0.0000    0.0000
  band No.  band energies     occupation 
      1     -25.2170      2.00000
      2     -12.9413      2.00000
      3      -9.1398      2.00000
      4      -7.0412      2.00000
      5      -1.0642      0.00000
      6       1.1377      0.00000
      7       1.2624      0.00000
      8       1.7458      0.00000
      9       1.7765      0.00000
     10       1.9949      0.00000
     11       2.0806      0.00000
     12       3.0852      0.00000
     13       3.7749      0.00000
     14       3.8403      0.00000
     15       3.8818      0.00000
     16       4.0714      0.00000


--------------------------------------------------------------------------------------------------------


 soft charge-density along one line, spin component           1
         0         1         2         3         4         5         6         7         8         9
 total charge-density along one line
 
 pseudopotential strength for first ion, spin component:           1
 13.786  -0.525  -0.002  -0.000  -0.123   0.000   0.000   0.006
 -0.525   0.119   0.000   0.000   0.015  -0.000  -0.000  -0.003
 -0.002   0.000 -10.567   0.000  -0.003   0.293  -0.000   0.000
 -0.000   0.000   0.000 -10.327  -0.000  -0.000   0.253   0.000
 -0.123   0.015  -0.003  -0.000 -10.472   0.000   0.000   0.277
  0.000  -0.000   0.293  -0.000   0.000   0.126   0.000  -0.000
  0.000  -0.000  -0.000   0.253   0.000   0.000   0.139  -0.000
  0.006  -0.003   0.000   0.000   0.277  -0.000  -0.000   0.131
 total augmentation occupancy for first ion, spin component:           1
  1.859   0.211   0.004   0.000  -0.167   0.002   0.000   0.055
  0.211   0.048   0.002   0.000   0.175   0.001   0.000   0.033
  0.004   0.002   1.418   0.000   0.006   0.270   0.000   0.002
  0.000   0.000   0.000   1.811   0.000   0.000   0.113   0.000
 -0.167   0.175   0.006   0.000   1.573   0.002   0.000   0.212
  0.002   0.001   0.270   0.000   0.002   0.051   0.000   0.001
  0.000   0.000   0.000   0.113   0.000   0.000   0.007   0.000
  0.055   0.033   0.002   0.000   0.212   0.001   0.000   0.032


------------------------ aborting loop because EDIFF is reached ----------------------------------------


    CHARGE:  cpu time    0.0160: real time    0.0169
    FORLOC:  cpu time    0.0040: real time    0.0026
    FORNL :  cpu time    0.0040: real time    0.0027
    STRESS:  cpu time    0.0680: real time    0.0668
    FORHAR:  cpu time    0.0080: real time    0.0102
    MIXING:  cpu time    0.0040: real time    0.0017
    OFIELD:  cpu time    0.0000: real time    0.0001

  FORCE on cell =-STRESS in cart. coord.  units (eV):
  Direction    XX          YY          ZZ          XY          YZ          ZX
  --------------------------------------------------------------------------------------
  Alpha Z     0.44833     0.44833     0.44833
  Ewald      13.77405    66.22153   -55.30072     0.99243     0.00000     0.00000
  Hartree   141.18049   150.06730   128.66537    -0.00697    -0.00000    -0.00000
  E(xc)     -36.15532   -35.96963   -36.45680     0.00094     0.00000    -0.00000
  Local    -243.99461  -290.47234  -183.63335    -0.49936    -0.00000    -0.00000
  n-local   -31.49781   -30.61504   -31.28913    -0.08611    -0.00000     0.00000
  augment     6.72339     5.78454     8.15442    -0.01133     0.00000     0.00000
  Kinetic   148.93978   134.38800   168.52322    -0.00451     0.00000    -0.00000
  Fock        0.00000     0.00000     0.00000     0.00000     0.00000     0.00000
  -------------------------------------------------------------------------------------
  Total      -0.58170    -0.14732    -0.88866     0.38509     0.00000     0.00000
  in kB      -1.86347    -0.47195    -2.84685     1.23363     0.00000     0.00000
  external pressure =       -1.73 kB  Pullay stress =        0.00 kB


 VOLUME and BASIS-vectors are now :
 -----------------------------------------------------------------------------
  energy-cutoff  :      400.00
  volume of cell :      500.13
      direct lattice vectors                 reciprocal lattice vectors
     7.937700000  0.000000000  0.000000000     0.125981078  0.000000000  0.000000000
     0.000000000  7.937700000  0.000000000     0.000000000  0.125981078  0.000000000
     0.000000000  0.000000000  7.937700000     0.000000000  0.000000000  0.125981078

  length of vectors
     7.937700000  7.937700000  7.937700000     0.125981078  0.125981078  0.125981078


 FORCES acting on ions
    electron-ion (+dipol)            ewald-force                    non-local-force                 convergence-correction
 -----------------------------------------------------------------------------------------------
   0.639E+02 0.879E+00 0.671E-15   -.114E+03 -.166E+01 -.503E-16   0.496E+02 0.128E+00 0.000E+00   0.679E-04 0.248E-03 -.475E-14
   -.508E+02 0.709E+02 -.110E-06   0.556E+02 -.776E+02 0.403E-17   -.485E+01 0.669E+01 0.000E+00   0.139E-04 -.692E-06 -.661E-16
   -.527E+02 -.716E+02 0.144E-06   0.584E+02 0.793E+02 -.675E-17   -.524E+01 -.701E+01 0.000E+00   0.281E-05 0.186E-04 0.630E-15
 -----------------------------------------------------------------------------------------------
   -.395E+02 0.191E+00 0.344E-07   0.711E-14 0.000E+00 -.530E-16   0.395E+02 -.192E+00 0.000E+00   0.846E-04 0.265E-03 -.419E-14
 
 
 POSITION                                       TOTAL-FORCE (eV/Angst)
 -----------------------------------------------------------------------------------
      0.00000      0.00000      0.00000        -0.402511     -0.650038      0.000000
      0.59636      7.16918      0.00000        -0.057196     -0.059021      0.000000
      0.59636      0.74852      0.00000         0.459707      0.709059      0.000000
 -----------------------------------------------------------------------------------
    total drift:                               -0.000910     -0.000795      0.000000


--------------------------------------------------------------------------------------------------------



  FREE ENERGIE OF THE ION-ELECTRON SYSTEM (eV)
  ---------------------------------------------------
  free  energy   TOTEN  =       -14.21677594 eV

  energy  without entropy=      -14.21677594  energy(sigma->0) =      -14.21677594
 
 d Force =-0.1131667E-02[-0.284E-01, 0.261E-01]  d Energy =-0.3266578E-03-0.805E-03
 d Force =-0.3098939E+01[-0.317E+01,-0.303E+01]  d Ewald  =-0.3098711E+01-0.228E-03


--------------------------------------------------------------------------------------------------------


    POTLOK:  cpu time    0.0480: real time    0.0478


--------------------------------------------------------------------------------------------------------


 Finite differences progress:
  Degree of freedom:   6/  6
  Displacement:        2/  2
  Total:              12/ 12
 
 SECOND DERIVATIVES (NOT SYMMETRIZED)
 ------------------------------------
               1X          1Y          2X          2Y          3X          3Y 
  1X   -41.015076    0.000000   20.507538  -18.417607   20.507538   18.417607
  1Y     0.002647  -62.466903  -24.246023   31.234349   24.243376   31.232554
  2X    20.444081  -24.204118  -19.612400   21.307677   -0.831681    2.896441
  2Y   -18.455568   31.161391   21.349122  -34.040854   -2.893553    2.879463
  3X    20.444053   24.202373   -0.831514   -2.895393  -19.612539  -21.306980
  3Y    18.454912   31.151529    2.897288    2.886823  -21.352201  -34.038351
 
 
 Eigenvectors and eigenvalues of the dynamical matrix
 ----------------------------------------------------
 
 
   1 f  =  114.746040 THz   720.970634 2PiTHz 3827.515794 cm-1   474.551648 meV
             X         Y         Z           dx          dy          dz
      0.000000  0.000000  0.000000     0.000027   -0.269139           0  
      0.596363  7.169178  0.000000    -0.417787    0.537928           0  
      0.596363  0.768522  0.000000     0.417672    0.537774           0  
 
   2 f  =  111.335068 THz   699.538866 2PiTHz 3713.738024 cm-1   460.444997 meV
             X         Y         Z           dx          dy          dz
      0.000000  0.000000  0.000000     0.192308    0.000018           0  
      0.596363  7.169178  0.000000    -0.384228    0.577707           0  
      0.596363  0.768522  0.000000    -0.384392   -0.577827           0  
 
   3 f  =   47.449624 THz   298.134780 2PiTHz 1582.749037 cm-1   196.235941 meV
             X         Y         Z           dx          dy          dz
      0.000000  0.000000  0.000000     0.273239    0.000041           0  
      0.596363  7.169178  0.000000    -0.544562   -0.407699           0  
      0.596363  0.768522  0.000000    -0.544447    0.407617           0  
 
   4 f  =    0.698850 THz     4.391004 2PiTHz   23.311124 cm-1     2.890212 meV
             X         Y         Z           dx          dy          dz
      0.000000  0.000000  0.000000    -0.012267   -0.962507           0  
      0.596363  7.169178  0.000000     0.131793   -0.136090           0  
      0.596363  0.768522  0.000000    -0.137979   -0.136023           0  
 
   5 f/i=    0.046972 THz     0.295132 2PiTHz    1.566809 cm-1     0.194260 meV
             X         Y         Z           dx          dy          dz
      0.000000  0.000000  0.000000     0.942443   -0.012637           0  
      0.596363  7.169178  0.000000     0.236230   -0.002874           0  
      0.596363  0.768522  0.000000     0.236257   -0.003466           0  
 
   6 f/i=    2.875646 THz    18.068219 2PiTHz   95.921235 cm-1    11.892722 meV
             X         Y         Z           dx          dy          dz
      0.000000  0.000000  0.000000     0.003028    0.031390           0  
      0.596363  7.169178  0.000000     0.555069    0.438338           0  
      0.596363  0.768522  0.000000    -0.553638    0.438462           0  
 
 Finite differences POTIM=  2.000000000000000E-002
  LATTYP: Found a simple cubic cell.
 ALAT       =     7.9377000000
  
  Lattice vectors:
  
 A1 = (   7.9377000000,   0.0000000000,   0.0000000000)
 A2 = (   0.0000000000,   7.9377000000,   0.0000000000)
 A3 = (   0.0000000000,   0.0000000000,   7.9377000000)


Analysis of symmetry for initial positions (statically):
=====================================================================
 Subroutine PRICEL returns:
 Original cell was already a primitive cell.
 

 Routine SETGRP: Setting up the symmetry group for a 
 simple cubic supercell.


 Subroutine GETGRP returns: Found  4 space group operations
 (whereof  4 operations were pure point group operations)
 out of a pool of 48 trial point group operations.


The static configuration has the point symmetry C_2v.


Analysis of symmetry for dynamics (positions and initial velocities):
=====================================================================
 Subroutine PRICEL returns:
 Original cell was already a primitive cell.
 

 Routine SETGRP: Setting up the symmetry group for a 
 simple cubic supercell.


 Subroutine GETGRP returns: Found  4 space group operations
 (whereof  4 operations were pure point group operations)
 out of a pool of 48 trial point group operations.


The dynamic configuration has the point symmetry C_2v.


Analysis of constrained symmetry for selective dynamics:
=====================================================================
 Subroutine PRICEL returns:
 Original cell was already a primitive cell.
 

 Routine SETGRP: Setting up the symmetry group for a 
 simple cubic supercell.


 Subroutine GETGRP returns: Found  4 space group operations
 (whereof  4 operations were pure point group operations)
 out of a pool of 48 trial point group operations.


The constrained configuration has the point symmetry C_2v.
 
 KPOINTS: Gamma-point only                        
  k-points in reciprocal lattice
Space group operators:
 irot       det(A)        alpha          n_x          n_y          n_z        tau_x        tau_y        tau_z
    1     1.000000     0.000001     1.000000     0.000000     0.000000     0.000000     0.000000     0.000000
    2    -1.000000   180.000000     0.000000     0.000000     1.000000     0.000000     0.000000     0.000000
    3     1.000000   180.000000     1.000000     0.000000     0.000000     0.000000     0.000000     0.000000
    4    -1.000000   180.000000     0.000000     1.000000     0.000000     0.000000     0.000000     0.000000
 writing wavefunctions
     LOOP+:  cpu time    1.4361: real time    1.4976
    4ORBIT:  cpu time    0.0000: real time    0.0000

 total amount of memory used by VASP on root node    37533. kBytes
========================================================================

   base      :      30000. kBytes
   nonl-proj :       1593. kBytes
   fftplans  :       1377. kBytes
   grid      :       4409. kBytes
   one-center:          9. kBytes
   wavefun   :        145. kBytes
 
  
  
 General timing and accounting informations for this job:
 ========================================================
  
                  Total CPU time used (sec):       23.713
                            User time (sec):       19.729
                          System time (sec):        3.984
                         Elapsed time (sec):       24.553
  
                   Maximum memory used (kb):       37032.
                   Average memory used (kb):           0.
  
                          Minor page faults:        12960
                          Major page faults:            0
                 Voluntary context switches:         2470
