<?xml version="1.0" encoding="ISO-8859-1"?>
<modeling>
 <generator>
  <i name="program" type="string">vasp </i>
  <i name="version" type="string">5.4.1  </i>
  <i name="subversion" type="string">24Jun15 (build Apr 04 2016 10:44:54) complex                          parallel </i>
  <i name="platform" type="string">Titan </i>
  <i name="date" type="string">2018 12 04 </i>
  <i name="time" type="string">13:35:57 </i>
 </generator>
 <incar>
  <i type="string" name="SYSTEM"> H2O vibration</i>
  <i type="string" name="PREC">normal</i>
  <i type="int" name="IBRION">     5</i>
  <i type="int" name="NFREE">     2</i>
  <i name="EDIFF">      0.00001000</i>
  <i type="int" name="NSW">     1</i>
  <i name="POTIM">      0.02000000</i>
  <i type="int" name="ISMEAR">     0</i>
  <v type="int" name="KPOINT_BSE">    -1     0     0     0</v>
 </incar>
 <kpoints>
  <varray name="kpointlist" >
   <v>       0.00000000       0.00000000       0.00000000 </v>
  </varray>
  <varray name="weights" >
   <v>       1.00000000 </v>
  </varray>
 </kpoints>
 <parameters>
  <separator name="general" >
   <i type="string" name="SYSTEM">H2O vibration</i>
   <i type="logical" name="LCOMPAT"> F  </i>
  </separator>
  <separator name="electronic" >
   <i type="string" name="PREC">normal</i>
   <i name="ENMAX">    400.00000000</i>
   <i name="ENAUG">    605.39200000</i>
   <i name="EDIFF">      0.00001000</i>
   <i type="int" name="IALGO">    38</i>
   <i type="int" name="IWAVPR">    11</i>
   <i type="int" name="NBANDS">    16</i>
   <i name="NELECT">      8.00000000</i>
   <i type="int" name="TURBO">     0</i>
   <i type="int" name="IRESTART">     0</i>
   <i type="int" name="NREBOOT">     0</i>
   <i type="int" name="NMIN">     0</i>
   <i name="EREF">      0.00000000</i>
   <separator name="electronic smearing" >
    <i type="int" name="ISMEAR">     0</i>
    <i name="SIGMA">      0.20000000</i>
    <i name="KSPACING">      0.50000000</i>
    <i type="logical" name="KGAMMA"> T  </i>
   </separator>
   <separator name="electronic projectors" >
    <i type="logical" name="LREAL"> F  </i>
    <v name="ROPT">      0.00000000      0.00000000</v>
    <i type="int" name="LMAXPAW">  -100</i>
    <i type="int" name="LMAXMIX">     2</i>
    <i type="logical" name="NLSPLINE"> F  </i>
   </separator>
   <separator name="electronic startup" >
    <i type="int" name="ISTART">     0</i>
    <i type="int" name="ICHARG">     2</i>
    <i type="int" name="INIWAV">     1</i>
   </separator>
   <separator name="electronic spin" >
    <i type="int" name="ISPIN">     1</i>
    <i type="logical" name="LNONCOLLINEAR"> F  </i>
    <v name="MAGMOM">      1.00000000      1.00000000      1.00000000</v>
    <i name="NUPDOWN">     -1.00000000</i>
    <i type="logical" name="LSORBIT"> F  </i>
    <v name="SAXIS">      0.00000000      0.00000000      1.00000000</v>
    <i type="logical" name="LSPIRAL"> F  </i>
    <v name="QSPIRAL">      0.00000000      0.00000000      0.00000000</v>
    <i type="logical" name="LZEROZ"> F  </i>
   </separator>
   <separator name="electronic exchange-correlation" >
    <i type="logical" name="LASPH"> F  </i>
    <i type="logical" name="LMETAGGA"> F  </i>
   </separator>
   <separator name="electronic convergence" >
    <i type="int" name="NELM">    60</i>
    <i type="int" name="NELMDL">    -5</i>
    <i type="int" name="NELMIN">     2</i>
    <i name="ENINI">    400.00000000</i>
    <separator name="electronic convergence detail" >
     <i type="logical" name="LDIAG"> T  </i>
     <i type="logical" name="LSUBROT"> F  </i>
     <i name="WEIMIN">      0.00100000</i>
     <i name="EBREAK">      0.00000016</i>
     <i name="DEPER">      0.30000000</i>
     <i type="int" name="NRMM">     4</i>
     <i name="TIME">      0.40000000</i>
    </separator>
   </separator>
   <separator name="electronic mixer" >
    <i name="AMIX">      0.40000000</i>
    <i name="BMIX">      1.00000000</i>
    <i name="AMIN">      0.10000000</i>
    <i name="AMIX_MAG">      1.60000000</i>
    <i name="BMIX_MAG">      1.00000000</i>
    <separator name="electronic mixer details" >
     <i type="int" name="IMIX">     4</i>
     <i type="logical" name="MIXFIRST"> F  </i>
     <i type="int" name="MAXMIX">   -45</i>
     <i name="WC">    100.00000000</i>
     <i type="int" name="INIMIX">     1</i>
     <i type="int" name="MIXPRE">     1</i>
     <i type="int" name="MREMOVE">     5</i>
    </separator>
   </separator>
   <separator name="electronic dipolcorrection" >
    <i type="logical" name="LDIPOL"> F  </i>
    <i type="logical" name="LMONO"> F  </i>
    <i type="int" name="IDIPOL">     0</i>
    <i name="EPSILON">      1.00000000</i>
    <v name="DIPOL">   -100.00000000   -100.00000000   -100.00000000</v>
    <i name="EFIELD">      0.00000000</i>
   </separator>
  </separator>
  <separator name="grids" >
   <i type="int" name="NGX">    40</i>
   <i type="int" name="NGY">    40</i>
   <i type="int" name="NGZ">    40</i>
   <i type="int" name="NGXF">    80</i>
   <i type="int" name="NGYF">    80</i>
   <i type="int" name="NGZF">    80</i>
   <i type="logical" name="ADDGRID"> F  </i>
  </separator>
  <separator name="ionic" >
   <i type="int" name="NSW">    73</i>
   <i type="int" name="IBRION">     5</i>
   <i type="int" name="ISIF">     2</i>
   <i name="PSTRESS">      0.00000000</i>
   <i name="EDIFFG">      0.00010000</i>
   <i type="int" name="NFREE">     2</i>
   <i name="POTIM">      0.02000000</i>
   <i name="SMASS">     -3.00000000</i>
   <i name="SCALEE">      1.00000000</i>
  </separator>
  <separator name="ionic md" >
   <i name="TEBEG">      0.00010000</i>
   <i name="TEEND">      0.00010000</i>
   <i type="int" name="NBLOCK">     1</i>
   <i type="int" name="KBLOCK">     1</i>
   <i type="int" name="NPACO">   256</i>
   <i name="APACO">     16.00000000</i>
  </separator>
  <separator name="symmetry" >
   <i type="int" name="ISYM">     2</i>
   <i name="SYMPREC">      0.00001000</i>
  </separator>
  <separator name="dos" >
   <i type="logical" name="LORBIT"> F  </i>
   <v name="RWIGS">     -1.00000000     -1.00000000</v>
   <i type="int" name="NEDOS">   301</i>
   <i name="EMIN">     10.00000000</i>
   <i name="EMAX">    -10.00000000</i>
   <i name="EFERMI">      0.00000000</i>
  </separator>
  <separator name="writing" >
   <i type="int" name="NWRITE">     2</i>
   <i type="logical" name="LWAVE"> T  </i>
   <i type="logical" name="LCHARG"> T  </i>
   <i type="logical" name="LPARD"> F  </i>
   <i type="logical" name="LVTOT"> F  </i>
   <i type="logical" name="LVHAR"> F  </i>
   <i type="logical" name="LELF"> F  </i>
   <i type="logical" name="LOPTICS"> F  </i>
   <v name="STM">      0.00000000      0.00000000      0.00000000      0.00000000      0.00000000      0.00000000      0.00000000</v>
  </separator>
  <separator name="performance" >
   <i type="int" name="NPAR">    16</i>
   <i type="int" name="NSIM">     4</i>
   <i type="int" name="NBLK">    -1</i>
   <i type="logical" name="LPLANE"> T  </i>
   <i type="logical" name="LSCALAPACK"> T  </i>
   <i type="logical" name="LSCAAWARE"> F  </i>
   <i type="logical" name="LSCALU"> F  </i>
   <i type="logical" name="LASYNC"> F  </i>
   <i type="logical" name="LORBITALREAL"> F  </i>
  </separator>
  <separator name="miscellaneous" >
   <i type="int" name="IDIOT">     3</i>
   <i type="logical" name="LMUSIC"> F  </i>
   <v name="POMASS">     16.00000000      1.00000000</v>
   <v name="DARWINR">      0.00000000      0.00000000</v>
   <v name="DARWINV">      1.00000000      1.00000000</v>
   <i type="logical" name="LCORR"> T  </i>
  </separator>
  <i type="logical" name="GGA_COMPAT"> T  </i>
  <i type="logical" name="LBERRY"> F  </i>
  <i type="int" name="ICORELEVEL">     0</i>
  <i type="logical" name="LDAU"> F  </i>
  <i type="int" name="I_CONSTRAINED_M">     0</i>
  <separator name="electronic exchange-correlation" >
   <i type="string" name="GGA">--</i>
   <i type="int" name="VOSKOWN">     0</i>
   <i type="logical" name="LHFCALC"> F  </i>
   <i type="string" name="PRECFOCK"></i>
   <i type="logical" name="LSYMGRAD"> F  </i>
   <i type="logical" name="LHFONE"> F  </i>
   <i type="logical" name="LRHFCALC"> F  </i>
   <i type="logical" name="LTHOMAS"> F  </i>
   <i type="logical" name="LMODELHF"> F  </i>
   <i name="ENCUT4O">     -1.00000000</i>
   <i type="int" name="EXXOEP">     0</i>
   <i type="int" name="FOURORBIT">     0</i>
   <i name="AEXX">      0.00000000</i>
   <i name="HFALPHA">      0.00000000</i>
   <i name="MCALPHA">      0.00000000</i>
   <i name="ALDAX">      1.00000000</i>
   <i name="AGGAX">      1.00000000</i>
   <i name="ALDAC">      1.00000000</i>
   <i name="AGGAC">      1.00000000</i>
   <i type="int" name="NKREDX">     1</i>
   <i type="int" name="NKREDY">     1</i>
   <i type="int" name="NKREDZ">     1</i>
   <i type="logical" name="SHIFTRED"> F  </i>
   <i type="logical" name="ODDONLY"> F  </i>
   <i type="logical" name="EVENONLY"> F  </i>
   <i type="int" name="LMAXFOCK">     0</i>
   <i type="int" name="NMAXFOCKAE">     0</i>
   <i type="logical" name="LFOCKAEDFT"> F  </i>
   <i name="HFSCREEN">      0.00000000</i>
   <i name="HFSCREENC">      0.00000000</i>
   <i type="int" name="NBANDSGWLOW">     0</i>
  </separator>
  <separator name="vdW DFT" >
   <i type="logical" name="LUSE_VDW"> F  </i>
   <i name="Zab_VDW">     -0.84910000</i>
   <i name="PARAM1">      0.12340000</i>
   <i name="PARAM2">      1.00000000</i>
   <i name="PARAM3">      0.00000000</i>
  </separator>
  <separator name="model GW" >
   <i type="int" name="MODEL_GW">     0</i>
   <i name="MODEL_EPS0">    100.02626183</i>
   <i name="MODEL_ALPHA">      1.00000000</i>
  </separator>
  <separator name="linear response parameters" >
   <i type="logical" name="LEPSILON"> F  </i>
   <i type="logical" name="LRPA"> F  </i>
   <i type="logical" name="LNABLA"> F  </i>
   <i type="logical" name="LVEL"> F  </i>
   <i type="int" name="KINTER">     0</i>
   <i name="CSHIFT">      0.10000000</i>
   <i name="OMEGAMAX">     -1.00000000</i>
   <i name="DEG_THRESHOLD">      0.00200000</i>
  </separator>
  <separator name="orbital magnetization" >
   <i type="logical" name="NUCIND"> F  </i>
   <v name="MAGPOS">      0.00000000      0.00000000      0.00000000</v>
   <i type="logical" name="LNICSALL"> T  </i>
   <i type="logical" name="ORBITALMAG"> F  </i>
   <i type="logical" name="LMAGBLOCH"> F  </i>
   <i type="logical" name="LCHIMAG"> F  </i>
   <i type="logical" name="LGAUGE"> T  </i>
   <i type="int" name="MAGATOM">     0</i>
   <v name="MAGDIPOL">      0.00000000      0.00000000      0.00000000</v>
   <v name="AVECCONST">      0.00000000      0.00000000      0.00000000</v>
  </separator>
  <separator name="response functions" >
   <i type="logical" name="LADDER"> F  </i>
   <i type="logical" name="LFXC"> F  </i>
   <i type="logical" name="LHARTREE"> T  </i>
   <i type="int" name="IBSE">     0</i>
   <v type="int" name="KPOINT">    -1     0     0     0</v>
   <i type="logical" name="LTCTE"> F  </i>
   <i type="logical" name="LTETE"> F  </i>
   <i type="logical" name="LTRIPLET"> F  </i>
   <i type="logical" name="LFXCEPS"> F  </i>
   <i type="logical" name="LFXHEG"> F  </i>
   <i type="int" name="NATURALO">     0</i>
   <i type="logical" name="L2ORDER"> F  </i>
   <i type="logical" name="LUSEW"> F  </i>
   <i name="ENCUTGW">     -2.00000000</i>
   <i name="ENCUTGWSOFT">     -2.00000000</i>
   <i name="ENCUTLF">     -1.00000000</i>
   <i type="int" name="LMAXMP2">    -1</i>
   <i name="SCISSOR">      0.00000000</i>
   <i type="int" name="NOMEGA">     0</i>
   <i type="int" name="NOMEGAR">     0</i>
   <i type="int" name="NBANDSGW">    -1</i>
   <i type="int" name="NBANDSO">    -1</i>
   <i type="int" name="NBANDSV">    -1</i>
   <i type="int" name="NELM">     1</i>
   <i type="int" name="NELMHF">     1</i>
   <i type="int" name="DIM">     3</i>
   <i type="int" name="ANTIRES">     0</i>
   <i name="OMEGAMAX">    -30.00000000</i>
   <i name="OMEGAMIN">    -30.00000000</i>
   <i name="OMEGATL">   -200.00000000</i>
   <i type="int" name="OMEGAGRID">     0</i>
   <i name="CSHIFT">     -0.10000000</i>
   <i type="logical" name="SELFENERGY"> F  </i>
   <i type="logical" name="LSPECTRAL"> F  </i>
   <i type="logical" name="LSPECTRALGW"> F  </i>
   <i type="logical" name="LSINGLES"> F  </i>
   <i type="logical" name="LFERMIGW"> F  </i>
   <i type="logical" name="ODDONLYGW"> F  </i>
   <i type="logical" name="EVENONLYGW"> F  </i>
   <i type="int" name="NKREDLFX">     1</i>
   <i type="int" name="NKREDLFY">     1</i>
   <i type="int" name="NKREDLFZ">     1</i>
   <i type="int" name="MAXMEM">  1800</i>
   <i type="int" name="TELESCOPE">     0</i>
   <i type="int" name="TAUPAR">     1</i>
   <i type="int" name="OMEGAPAR">    -1</i>
   <i name="LAMBDA">      1.00000000</i>
  </separator>
  <separator name="External order field" >
   <i name="OFIELD_KAPPA">      0.00000000</i>
   <v name="OFIELD_K">      0.00000000      0.00000000      0.00000000</v>
   <i name="OFIELD_Q6_NEAR">      0.00000000</i>
   <i name="OFIELD_Q6_FAR">      0.00000000</i>
   <i name="OFIELD_A">      0.00000000</i>
  </separator>
 </parameters>
 <atominfo>
  <atoms>       3 </atoms>
  <types>       2 </types>
  <array name="atoms" >
   <dimension dim="1">ion</dimension>
   <field type="string">element</field>
   <field type="int">atomtype</field>
   <set>
    <rc><c>O </c><c>   1</c></rc>
    <rc><c>H </c><c>   2</c></rc>
    <rc><c>H </c><c>   2</c></rc>
   </set>
  </array>
  <array name="atomtypes" >
   <dimension dim="1">type</dimension>
   <field type="int">atomspertype</field>
   <field type="string">element</field>
   <field>mass</field>
   <field>valence</field>
   <field type="string">pseudopotential</field>
   <set>
    <rc><c>   1</c><c>O </c><c>     16.00000000</c><c>      6.00000000</c><c> PAW_RPBE O 08Apr2002                   </c></rc>
    <rc><c>   2</c><c>H </c><c>      1.00000000</c><c>      1.00000000</c><c> PAW_RPBE H 15Jun2001                   </c></rc>
   </set>
  </array>
 </atominfo>
 <structure name="initialpos" >
  <crystal>
   <varray name="basis" >
    <v>       7.93770000       0.00000000       0.00000000 </v>
    <v>       0.00000000       7.93770000       0.00000000 </v>
    <v>       0.00000000       0.00000000       7.93770000 </v>
   </varray>
   <i name="volume">    500.13130916 </i>
   <varray name="rec_basis" >
    <v>       0.12598108       0.00000000       0.00000000 </v>
    <v>       0.00000000       0.12598108       0.00000000 </v>
    <v>       0.00000000       0.00000000       0.12598108 </v>
   </varray>
  </crystal>
  <varray name="positions" >
   <v>       0.00000000       0.00000000       0.00000000 </v>
   <v>       0.07513045       0.90318071       0.00000000 </v>
   <v>       0.07513045       0.09681929       0.00000000 </v>
  </varray>
  <varray name="selective"  type="logical" >
   <v type="logical" >  T  T  F </v>
   <v type="logical" >  T  T  F </v>
   <v type="logical" >  T  T  F </v>
  </varray>
  <nose>
   <v>      -3.00000000       0.00000000       0.00010000       0.00010000 </v>
  </nose>
 </structure>
 <calculation>
  <scstep>
   <time name="dav">    0.04    0.04</time>
   <time name="total">    0.11    0.12</time>
   <energy>
    <i name="alphaZ">      0.44832783 </i>
    <i name="ewald">     23.12739290 </i>
    <i name="hartreedc">   -384.48937671 </i>
    <i name="XCdc">     32.22925639 </i>
    <i name="pawpsdc">    247.56105404 </i>
    <i name="pawaedc">   -249.42875511 </i>
    <i name="eentropy">     -0.00225631 </i>
    <i name="bandstr">    -72.16126076 </i>
    <i name="atom">    457.22046137 </i>
    <i name="e_fr_energy">     54.50484364 </i>
    <i name="e_wo_entrp">     54.50709994 </i>
    <i name="e_0_energy">     54.50597179 </i>
   </energy>
  </scstep>
  <scstep>
   <time name="dav">    0.06    0.05</time>
   <time name="total">    0.06    0.07</time>
   <energy>
    <i name="e_fr_energy">    -12.70576593 </i>
    <i name="e_wo_entrp">    -12.70576593 </i>
    <i name="e_0_energy">    -12.70576593 </i>
   </energy>
  </scstep>
  <scstep>
   <time name="dav">    0.04    0.04</time>
   <time name="total">    0.04    0.04</time>
   <energy>
    <i name="e_fr_energy">    -16.22067834 </i>
    <i name="e_wo_entrp">    -16.22067834 </i>
    <i name="e_0_energy">    -16.22067834 </i>
   </energy>
  </scstep>
  <scstep>
   <time name="dav">    0.04    0.04</time>
   <time name="total">    0.04    0.04</time>
   <energy>
    <i name="e_fr_energy">    -16.24273643 </i>
    <i name="e_wo_entrp">    -16.24273643 </i>
    <i name="e_0_energy">    -16.24273643 </i>
   </energy>
  </scstep>
  <scstep>
   <time name="dav">    0.08    0.08</time>
   <time name="total">    0.10    0.10</time>
   <energy>
    <i name="e_fr_energy">    -16.24287451 </i>
    <i name="e_wo_entrp">    -16.24287451 </i>
    <i name="e_0_energy">    -16.24287451 </i>
   </energy>
  </scstep>
  <scstep>
   <time name="dav">    0.06    0.06</time>
   <time name="total">    0.12    0.12</time>
   <energy>
    <i name="e_fr_energy">    -14.38507600 </i>
    <i name="e_wo_entrp">    -14.38507600 </i>
    <i name="e_0_energy">    -14.38507600 </i>
   </energy>
  </scstep>
  <scstep>
   <time name="dav">    0.05    0.05</time>
   <time name="total">    0.12    0.12</time>
   <energy>
    <i name="e_fr_energy">    -14.27826455 </i>
    <i name="e_wo_entrp">    -14.27826455 </i>
    <i name="e_0_energy">    -14.27826455 </i>
   </energy>
  </scstep>
  <scstep>
   <time name="dav">    0.06    0.05</time>
   <time name="total">    0.12    0.12</time>
   <energy>
    <i name="e_fr_energy">    -14.20074144 </i>
    <i name="e_wo_entrp">    -14.20074144 </i>
    <i name="e_0_energy">    -14.20074144 </i>
   </energy>
  </scstep>
  <scstep>
   <time name="dav">    0.08    0.07</time>
   <time name="total">    0.14    0.14</time>
   <energy>
    <i name="e_fr_energy">    -14.20966709 </i>
    <i name="e_wo_entrp">    -14.20966709 </i>
    <i name="e_0_energy">    -14.20966709 </i>
   </energy>
  </scstep>
  <scstep>
   <time name="dav">    0.04    0.04</time>
   <time name="total">    0.10    0.10</time>
   <energy>
    <i name="e_fr_energy">    -14.21430623 </i>
    <i name="e_wo_entrp">    -14.21430623 </i>
    <i name="e_0_energy">    -14.21430623 </i>
   </energy>
  </scstep>
  <scstep>
   <time name="dav">    0.08    0.08</time>
   <time name="total">    0.14    0.14</time>
   <energy>
    <i name="e_fr_energy">    -14.22182513 </i>
    <i name="e_wo_entrp">    -14.22182513 </i>
    <i name="e_0_energy">    -14.22182513 </i>
   </energy>
  </scstep>
  <scstep>
   <time name="dav">    0.04    0.04</time>
   <time name="total">    0.10    0.10</time>
   <energy>
    <i name="e_fr_energy">    -14.22278649 </i>
    <i name="e_wo_entrp">    -14.22278649 </i>
    <i name="e_0_energy">    -14.22278649 </i>
   </energy>
  </scstep>
  <scstep>
   <time name="dav">    0.08    0.07</time>
   <time name="total">    0.13    0.14</time>
   <energy>
    <i name="e_fr_energy">    -14.22361200 </i>
    <i name="e_wo_entrp">    -14.22361200 </i>
    <i name="e_0_energy">    -14.22361200 </i>
   </energy>
  </scstep>
  <scstep>
   <time name="dav">    0.08    0.07</time>
   <time name="total">    0.14    0.14</time>
   <energy>
    <i name="e_fr_energy">    -14.22365391 </i>
    <i name="e_wo_entrp">    -14.22365391 </i>
    <i name="e_0_energy">    -14.22365391 </i>
   </energy>
  </scstep>
  <scstep>
   <time name="dav">    0.06    0.05</time>
   <time name="total">    0.12    0.12</time>
   <energy>
    <i name="e_fr_energy">    -14.22374782 </i>
    <i name="e_wo_entrp">    -14.22374782 </i>
    <i name="e_0_energy">    -14.22374782 </i>
   </energy>
  </scstep>
  <scstep>
   <time name="dav">    0.08    0.08</time>
   <time name="total">    0.12    0.12</time>
   <energy>
    <i name="alphaZ">      0.44832783 </i>
    <i name="ewald">     23.12739290 </i>
    <i name="hartreedc">   -418.72469618 </i>
    <i name="XCdc">     34.06571147 </i>
    <i name="pawpsdc">    328.73411595 </i>
    <i name="pawaedc">   -330.84247308 </i>
    <i name="eentropy">     -0.00000000 </i>
    <i name="bandstr">   -108.25259498 </i>
    <i name="atom">    457.22046137 </i>
    <i name="e_fr_energy">    -14.22375472 </i>
    <i name="e_wo_entrp">    -14.22375472 </i>
    <i name="e_0_energy">    -14.22375472 </i>
   </energy>
  </scstep>
  <structure>
   <crystal>
    <varray name="basis" >
     <v>       7.93770000       0.00000000       0.00000000 </v>
     <v>       0.00000000       7.93770000       0.00000000 </v>
     <v>       0.00000000       0.00000000       7.93770000 </v>
    </varray>
    <i name="volume">    500.13130916 </i>
    <varray name="rec_basis" >
     <v>       0.12598108       0.00000000       0.00000000 </v>
     <v>       0.00000000       0.12598108       0.00000000 </v>
     <v>       0.00000000       0.00000000       0.12598108 </v>
    </varray>
   </crystal>
   <varray name="positions" >
    <v>       0.00000000       0.00000000       0.00000000 </v>
    <v>       0.07513045       0.90318071       0.00000000 </v>
    <v>       0.07513045       0.09681929       0.00000000 </v>
   </varray>
  </structure>
  <varray name="forces" >
   <v>      -0.00290732       0.00000000       0.00000000 </v>
   <v>       0.00145366      -0.00001195       0.00000000 </v>
   <v>       0.00145366       0.00001195       0.00000000 </v>
  </varray>
  <varray name="stress" >
   <v>      -2.62929082       0.00000000       0.00000000 </v>
   <v>       0.00000000      -2.31812319       0.00000000 </v>
   <v>       0.00000000       0.00000000      -2.85592391 </v>
  </varray>
  <energy>
   <i name="e_fr_energy">    -14.22375472 </i>
   <i name="e_wo_entrp">    -14.22375472 </i>
   <i name="e_0_energy">     -0.00000000 </i>
  </energy>
  <kpoints>
   <varray name="kpointlist" >
    <v>       0.00000000       0.00000000       0.00000000 </v>
   </varray>
   <varray name="weights" >
    <v>       1.00000000 </v>
   </varray>
  </kpoints>
  <time name="totalsc">    3.61    3.73</time>
 </calculation>
 <calculation>
  <scstep>
   <time name="dav">    0.04    0.04</time>
   <time name="total">    0.10    0.10</time>
   <energy>
    <i name="alphaZ">      0.44832783 </i>
    <i name="ewald">     25.35409084 </i>
    <i name="hartreedc">   -419.61940690 </i>
    <i name="XCdc">     34.10337800 </i>
    <i name="pawpsdc">    328.72968800 </i>
    <i name="pawaedc">   -330.83800922 </i>
    <i name="eentropy">     -0.00000000 </i>
    <i name="bandstr">   -109.61451052 </i>
    <i name="atom">    457.22046137 </i>
    <i name="e_fr_energy">    -14.21598061 </i>
    <i name="e_wo_entrp">    -14.21598061 </i>
    <i name="e_0_energy">    -14.21598061 </i>
   </energy>
  </scstep>
  <scstep>
   <time name="dav">    0.06    0.06</time>
   <time name="total">    0.12    0.12</time>
   <energy>
    <i name="e_fr_energy">    -14.21521914 </i>
    <i name="e_wo_entrp">    -14.21521914 </i>
    <i name="e_0_energy">    -14.21521914 </i>
   </energy>
  </scstep>
  <scstep>
   <time name="dav">    0.05    0.05</time>
   <time name="total">    0.12    0.12</time>
   <energy>
    <i name="e_fr_energy">    -14.21518252 </i>
    <i name="e_wo_entrp">    -14.21518252 </i>
    <i name="e_0_energy">    -14.21518252 </i>
   </energy>
  </scstep>
  <scstep>
   <time name="dav">    0.06    0.05</time>
   <time name="total">    0.12    0.12</time>
   <energy>
    <i name="e_fr_energy">    -14.21531959 </i>
    <i name="e_wo_entrp">    -14.21531959 </i>
    <i name="e_0_energy">    -14.21531959 </i>
   </energy>
  </scstep>
  <scstep>
   <time name="dav">    0.08    0.07</time>
   <time name="total">    0.14    0.14</time>
   <energy>
    <i name="e_fr_energy">    -14.21533947 </i>
    <i name="e_wo_entrp">    -14.21533947 </i>
    <i name="e_0_energy">    -14.21533947 </i>
   </energy>
  </scstep>
  <scstep>
   <time name="dav">    0.04    0.04</time>
   <time name="total">    0.08    0.09</time>
   <energy>
    <i name="alphaZ">      0.44832783 </i>
    <i name="ewald">     25.35409084 </i>
    <i name="hartreedc">   -420.49801685 </i>
    <i name="XCdc">     34.15634345 </i>
    <i name="pawpsdc">    332.29312740 </i>
    <i name="pawaedc">   -334.42477901 </i>
    <i name="eentropy">     -0.00000000 </i>
    <i name="bandstr">   -108.76490432 </i>
    <i name="atom">    457.22046137 </i>
    <i name="e_fr_energy">    -14.21534931 </i>
    <i name="e_wo_entrp">    -14.21534931 </i>
    <i name="e_0_energy">    -14.21534931 </i>
   </energy>
  </scstep>
  <structure>
   <crystal>
    <varray name="basis" >
     <v>       7.93770000       0.00000000       0.00000000 </v>
     <v>       0.00000000       7.93770000       0.00000000 </v>
     <v>       0.00000000       0.00000000       7.93770000 </v>
    </varray>
    <i name="volume">    500.13130916 </i>
    <varray name="rec_basis" >
     <v>       0.12598108       0.00000000       0.00000000 </v>
     <v>       0.00000000       0.12598108       0.00000000 </v>
     <v>       0.00000000       0.00000000       0.12598108 </v>
    </varray>
   </crystal>
   <varray name="positions" >
    <v>       0.00251962       0.00000000       0.00000000 </v>
    <v>       0.07513045       0.90318071       0.00000000 </v>
    <v>       0.07513045       0.09681929       0.00000000 </v>
   </varray>
  </structure>
  <varray name="forces" >
   <v>      -0.83647910       0.00000000       0.00000000 </v>
   <v>       0.41823955      -0.38866383       0.00000000 </v>
   <v>       0.41823955       0.38866383       0.00000000 </v>
  </varray>
  <varray name="stress" >
   <v>      -1.10211478       0.00000000       0.00000000 </v>
   <v>       0.00000000      -0.40399029       0.00000000 </v>
   <v>       0.00000000       0.00000000      -2.84358962 </v>
  </varray>
  <energy>
   <i name="e_fr_energy">    -14.21534931 </i>
   <i name="e_wo_entrp">    -14.21534931 </i>
   <i name="e_0_energy">     -0.00000000 </i>
  </energy>
  <kpoints>
   <varray name="kpointlist" >
    <v>       0.00000000       0.00000000       0.00000000 </v>
   </varray>
   <varray name="weights" >
    <v>       1.00000000 </v>
   </varray>
  </kpoints>
  <time name="totalsc">    0.87    0.90</time>
 </calculation>
 <calculation>
  <scstep>
   <time name="dav">    0.04    0.04</time>
   <time name="total">    0.10    0.11</time>
   <energy>
    <i name="alphaZ">      0.44832783 </i>
    <i name="ewald">     20.91082736 </i>
    <i name="hartreedc">   -418.63837864 </i>
    <i name="XCdc">     34.07768025 </i>
    <i name="pawpsdc">    332.28532469 </i>
    <i name="pawaedc">   -334.41670163 </i>
    <i name="eentropy">     -0.00000000 </i>
    <i name="bandstr">   -106.10529051 </i>
    <i name="atom">    457.22046137 </i>
    <i name="e_fr_energy">    -14.21774928 </i>
    <i name="e_wo_entrp">    -14.21774928 </i>
    <i name="e_0_energy">    -14.21774928 </i>
   </energy>
  </scstep>
  <scstep>
   <time name="dav">    0.05    0.06</time>
   <time name="total">    0.12    0.12</time>
   <energy>
    <i name="e_fr_energy">    -14.21556434 </i>
    <i name="e_wo_entrp">    -14.21556434 </i>
    <i name="e_0_energy">    -14.21556434 </i>
   </energy>
  </scstep>
  <scstep>
   <time name="dav">    0.06    0.05</time>
   <time name="total">    0.11    0.12</time>
   <energy>
    <i name="e_fr_energy">    -14.21494650 </i>
    <i name="e_wo_entrp">    -14.21494650 </i>
    <i name="e_0_energy">    -14.21494650 </i>
   </energy>
  </scstep>
  <scstep>
   <time name="dav">    0.04    0.04</time>
   <time name="total">    0.10    0.10</time>
   <energy>
    <i name="e_fr_energy">    -14.21547360 </i>
    <i name="e_wo_entrp">    -14.21547360 </i>
    <i name="e_0_energy">    -14.21547360 </i>
   </energy>
  </scstep>
  <scstep>
   <time name="dav">    0.05    0.05</time>
   <time name="total">    0.12    0.12</time>
   <energy>
    <i name="e_fr_energy">    -14.21555113 </i>
    <i name="e_wo_entrp">    -14.21555113 </i>
    <i name="e_0_energy">    -14.21555113 </i>
   </energy>
  </scstep>
  <scstep>
   <time name="dav">    0.06    0.05</time>
   <time name="total">    0.11    0.12</time>
   <energy>
    <i name="e_fr_energy">    -14.21558490 </i>
    <i name="e_wo_entrp">    -14.21558490 </i>
    <i name="e_0_energy">    -14.21558490 </i>
   </energy>
  </scstep>
  <scstep>
   <time name="dav">    0.06    0.06</time>
   <time name="total">    0.12    0.12</time>
   <energy>
    <i name="e_fr_energy">    -14.21561591 </i>
    <i name="e_wo_entrp">    -14.21561591 </i>
    <i name="e_0_energy">    -14.21561591 </i>
   </energy>
  </scstep>
  <scstep>
   <time name="dav">    0.04    0.04</time>
   <time name="total">    0.10    0.10</time>
   <energy>
    <i name="e_fr_energy">    -14.21564377 </i>
    <i name="e_wo_entrp">    -14.21564377 </i>
    <i name="e_0_energy">    -14.21564377 </i>
   </energy>
  </scstep>
  <scstep>
   <time name="dav">    0.04    0.04</time>
   <time name="total">    0.08    0.09</time>
   <energy>
    <i name="alphaZ">      0.44832783 </i>
    <i name="ewald">     20.91082736 </i>
    <i name="hartreedc">   -416.92435105 </i>
    <i name="XCdc">     33.97421482 </i>
    <i name="pawpsdc">    325.28282783 </i>
    <i name="pawaedc">   -327.36888878 </i>
    <i name="eentropy">     -0.00000000 </i>
    <i name="bandstr">   -107.75907237 </i>
    <i name="atom">    457.22046137 </i>
    <i name="e_fr_energy">    -14.21565300 </i>
    <i name="e_wo_entrp">    -14.21565300 </i>
    <i name="e_0_energy">    -14.21565300 </i>
   </energy>
  </scstep>
  <structure>
   <crystal>
    <varray name="basis" >
     <v>       7.93770000       0.00000000       0.00000000 </v>
     <v>       0.00000000       7.93770000       0.00000000 </v>
     <v>       0.00000000       0.00000000       7.93770000 </v>
    </varray>
    <i name="volume">    500.13130916 </i>
    <varray name="rec_basis" >
     <v>       0.12598108       0.00000000       0.00000000 </v>
     <v>       0.00000000       0.12598108       0.00000000 </v>
     <v>       0.00000000       0.00000000       0.12598108 </v>
    </varray>
   </crystal>
   <varray name="positions" >
    <v>      -0.00251962       0.00000000       0.00000000 </v>
    <v>       0.07513045       0.90318071       0.00000000 </v>
    <v>       0.07513045       0.09681929       0.00000000 </v>
   </varray>
  </structure>
  <varray name="forces" >
   <v>       0.80412393      -0.00000000       0.00000000 </v>
   <v>      -0.40206197       0.34804045       0.00000000 </v>
   <v>      -0.40206197      -0.34804045       0.00000000 </v>
  </varray>
  <varray name="stress" >
   <v>      -4.19758428       0.00000000       0.00000000 </v>
   <v>       0.00000000      -4.00910546       0.00000000 </v>
   <v>       0.00000000       0.00000000      -2.84935476 </v>
  </varray>
  <energy>
   <i name="e_fr_energy">    -14.21565300 </i>
   <i name="e_wo_entrp">    -14.21565300 </i>
   <i name="e_0_energy">     -0.00000000 </i>
  </energy>
  <kpoints>
   <varray name="kpointlist" >
    <v>       0.00000000       0.00000000       0.00000000 </v>
   </varray>
   <varray name="weights" >
    <v>       1.00000000 </v>
   </varray>
  </kpoints>
  <time name="totalsc">    1.14    1.19</time>
 </calculation>
 <calculation>
  <scstep>
   <time name="dav">    0.04    0.04</time>
   <time name="total">    0.10    0.10</time>
   <energy>
    <i name="alphaZ">      0.44832783 </i>
    <i name="ewald">     23.16044718 </i>
    <i name="hartreedc">   -417.82423865 </i>
    <i name="XCdc">     34.01195582 </i>
    <i name="pawpsdc">    325.28095881 </i>
    <i name="pawaedc">   -327.36697009 </i>
    <i name="eentropy">     -0.00000000 </i>
    <i name="bandstr">   -109.14250678 </i>
    <i name="atom">    457.22046137 </i>
    <i name="e_fr_energy">    -14.21156453 </i>
    <i name="e_wo_entrp">    -14.21156453 </i>
    <i name="e_0_energy">    -14.21156453 </i>
   </energy>
  </scstep>
  <scstep>
   <time name="dav">    0.06    0.06</time>
   <time name="total">    0.12    0.12</time>
   <energy>
    <i name="e_fr_energy">    -14.21099434 </i>
    <i name="e_wo_entrp">    -14.21099434 </i>
    <i name="e_0_energy">    -14.21099434 </i>
   </energy>
  </scstep>
  <scstep>
   <time name="dav">    0.08    0.08</time>
   <time name="total">    0.14    0.14</time>
   <energy>
    <i name="e_fr_energy">    -14.21088812 </i>
    <i name="e_wo_entrp">    -14.21088812 </i>
    <i name="e_0_energy">    -14.21088812 </i>
   </energy>
  </scstep>
  <scstep>
   <time name="dav">    0.07    0.07</time>
   <time name="total">    0.14    0.14</time>
   <energy>
    <i name="e_fr_energy">    -14.21107790 </i>
    <i name="e_wo_entrp">    -14.21107790 </i>
    <i name="e_0_energy">    -14.21107790 </i>
   </energy>
  </scstep>
  <scstep>
   <time name="dav">    0.04    0.04</time>
   <time name="total">    0.10    0.11</time>
   <energy>
    <i name="e_fr_energy">    -14.21113959 </i>
    <i name="e_wo_entrp">    -14.21113959 </i>
    <i name="e_0_energy">    -14.21113959 </i>
   </energy>
  </scstep>
  <scstep>
   <time name="dav">    0.07    0.07</time>
   <time name="total">    0.14    0.15</time>
   <energy>
    <i name="e_fr_energy">    -14.21118025 </i>
    <i name="e_wo_entrp">    -14.21118025 </i>
    <i name="e_0_energy">    -14.21118025 </i>
   </energy>
  </scstep>
  <scstep>
   <time name="dav">    0.08    0.08</time>
   <time name="total">    0.14    0.14</time>
   <energy>
    <i name="e_fr_energy">    -14.21120593 </i>
    <i name="e_wo_entrp">    -14.21120593 </i>
    <i name="e_0_energy">    -14.21120593 </i>
   </energy>
  </scstep>
  <scstep>
   <time name="dav">    0.08    0.07</time>
   <time name="total">    0.14    0.14</time>
   <energy>
    <i name="e_fr_energy">    -14.21122881 </i>
    <i name="e_wo_entrp">    -14.21122881 </i>
    <i name="e_0_energy">    -14.21122881 </i>
   </energy>
  </scstep>
  <scstep>
   <time name="dav">    0.08    0.08</time>
   <time name="total">    0.12    0.13</time>
   <energy>
    <i name="alphaZ">      0.44832783 </i>
    <i name="ewald">     23.16044718 </i>
    <i name="hartreedc">   -418.73561555 </i>
    <i name="XCdc">     34.06667148 </i>
    <i name="pawpsdc">    328.84615834 </i>
    <i name="pawaedc">   -330.95503112 </i>
    <i name="eentropy">     -0.00000000 </i>
    <i name="bandstr">   -108.26265717 </i>
    <i name="atom">    457.22046137 </i>
    <i name="e_fr_energy">    -14.21123766 </i>
    <i name="e_wo_entrp">    -14.21123766 </i>
    <i name="e_0_energy">    -14.21123766 </i>
   </energy>
  </scstep>
  <structure>
   <crystal>
    <varray name="basis" >
     <v>       7.93770000       0.00000000       0.00000000 </v>
     <v>       0.00000000       7.93770000       0.00000000 </v>
     <v>       0.00000000       0.00000000       7.93770000 </v>
    </varray>
    <i name="volume">    500.13130916 </i>
    <varray name="rec_basis" >
     <v>       0.12598108       0.00000000       0.00000000 </v>
     <v>       0.00000000       0.12598108       0.00000000 </v>
     <v>       0.00000000       0.00000000       0.12598108 </v>
    </varray>
   </crystal>
   <varray name="positions" >
    <v>       0.00000000       0.00251962       0.00000000 </v>
    <v>       0.07513045       0.90318071       0.00000000 </v>
    <v>       0.07513045       0.09681929       0.00000000 </v>
   </varray>
  </structure>
  <varray name="forces" >
   <v>      -0.06705470      -1.24932833       0.00000000 </v>
   <v>      -0.45136014       0.59787656       0.00000000 </v>
   <v>       0.51841484       0.65145177       0.00000000 </v>
  </varray>
  <varray name="stress" >
   <v>      -2.49541490       2.36161674       0.00000000 </v>
   <v>       2.36161674      -2.25387722       0.00000000 </v>
   <v>       0.00000000       0.00000000      -2.84597080 </v>
  </varray>
  <energy>
   <i name="e_fr_energy">    -14.21123766 </i>
   <i name="e_wo_entrp">    -14.21123766 </i>
   <i name="e_0_energy">     -0.00000000 </i>
  </energy>
  <kpoints>
   <varray name="kpointlist" >
    <v>       0.00000000       0.00000000       0.00000000 </v>
   </varray>
   <varray name="weights" >
    <v>       1.00000000 </v>
   </varray>
  </kpoints>
  <time name="totalsc">    1.33    1.38</time>
 </calculation>
 <calculation>
  <scstep>
   <time name="dav">    0.04    0.04</time>
   <time name="total">    0.11    0.10</time>
   <energy>
    <i name="alphaZ">      0.44832783 </i>
    <i name="ewald">     23.16044718 </i>
    <i name="hartreedc">   -418.67256820 </i>
    <i name="XCdc">     34.06346407 </i>
    <i name="pawpsdc">    328.84686922 </i>
    <i name="pawaedc">   -330.95575792 </i>
    <i name="eentropy">     -0.00000000 </i>
    <i name="bandstr">   -108.32379813 </i>
    <i name="atom">    457.22046137 </i>
    <i name="e_fr_energy">    -14.21255460 </i>
    <i name="e_wo_entrp">    -14.21255460 </i>
    <i name="e_0_energy">    -14.21255460 </i>
   </energy>
  </scstep>
  <scstep>
   <time name="dav">    0.04    0.04</time>
   <time name="total">    0.10    0.10</time>
   <energy>
    <i name="e_fr_energy">    -14.21131553 </i>
    <i name="e_wo_entrp">    -14.21131553 </i>
    <i name="e_0_energy">    -14.21131553 </i>
   </energy>
  </scstep>
  <scstep>
   <time name="dav">    0.08    0.07</time>
   <time name="total">    0.13    0.14</time>
   <energy>
    <i name="e_fr_energy">    -14.21061872 </i>
    <i name="e_wo_entrp">    -14.21061872 </i>
    <i name="e_0_energy">    -14.21061872 </i>
   </energy>
  </scstep>
  <scstep>
   <time name="dav">    0.04    0.04</time>
   <time name="total">    0.10    0.10</time>
   <energy>
    <i name="e_fr_energy">    -14.21090158 </i>
    <i name="e_wo_entrp">    -14.21090158 </i>
    <i name="e_0_energy">    -14.21090158 </i>
   </energy>
  </scstep>
  <scstep>
   <time name="dav">    0.08    0.07</time>
   <time name="total">    0.14    0.14</time>
   <energy>
    <i name="e_fr_energy">    -14.21101875 </i>
    <i name="e_wo_entrp">    -14.21101875 </i>
    <i name="e_0_energy">    -14.21101875 </i>
   </energy>
  </scstep>
  <scstep>
   <time name="dav">    0.08    0.07</time>
   <time name="total">    0.14    0.14</time>
   <energy>
    <i name="e_fr_energy">    -14.21112168 </i>
    <i name="e_wo_entrp">    -14.21112168 </i>
    <i name="e_0_energy">    -14.21112168 </i>
   </energy>
  </scstep>
  <scstep>
   <time name="dav">    0.08    0.08</time>
   <time name="total">    0.14    0.14</time>
   <energy>
    <i name="e_fr_energy">    -14.21120287 </i>
    <i name="e_wo_entrp">    -14.21120287 </i>
    <i name="e_0_energy">    -14.21120287 </i>
   </energy>
  </scstep>
  <scstep>
   <time name="dav">    0.08    0.08</time>
   <time name="total">    0.14    0.14</time>
   <energy>
    <i name="e_fr_energy">    -14.21122866 </i>
    <i name="e_wo_entrp">    -14.21122866 </i>
    <i name="e_0_energy">    -14.21122866 </i>
   </energy>
  </scstep>
  <scstep>
   <time name="dav">    0.08    0.08</time>
   <time name="total">    0.12    0.13</time>
   <energy>
    <i name="alphaZ">      0.44832783 </i>
    <i name="ewald">     23.16044718 </i>
    <i name="hartreedc">   -418.73542537 </i>
    <i name="XCdc">     34.06666462 </i>
    <i name="pawpsdc">    328.84810554 </i>
    <i name="pawaedc">   -330.95700393 </i>
    <i name="eentropy">     -0.00000000 </i>
    <i name="bandstr">   -108.26281372 </i>
    <i name="atom">    457.22046137 </i>
    <i name="e_fr_energy">    -14.21123648 </i>
    <i name="e_wo_entrp">    -14.21123648 </i>
    <i name="e_0_energy">    -14.21123648 </i>
   </energy>
  </scstep>
  <structure>
   <crystal>
    <varray name="basis" >
     <v>       7.93770000       0.00000000       0.00000000 </v>
     <v>       0.00000000       7.93770000       0.00000000 </v>
     <v>       0.00000000       0.00000000       7.93770000 </v>
    </varray>
    <i name="volume">    500.13130916 </i>
    <varray name="rec_basis" >
     <v>       0.12598108       0.00000000       0.00000000 </v>
     <v>       0.00000000       0.12598108       0.00000000 </v>
     <v>       0.00000000       0.00000000       0.12598108 </v>
    </varray>
   </crystal>
   <varray name="positions" >
    <v>       0.00000000      -0.00251962       0.00000000 </v>
    <v>       0.07513045       0.90318071       0.00000000 </v>
    <v>       0.07513045       0.09681929       0.00000000 </v>
   </varray>
  </structure>
  <varray name="forces" >
   <v>      -0.06716058       1.24934779       0.00000000 </v>
   <v>       0.51848080      -0.65149740       0.00000000 </v>
   <v>      -0.45132021      -0.59785039       0.00000000 </v>
  </varray>
  <varray name="stress" >
   <v>      -2.49647730      -2.36145053       0.00000000 </v>
   <v>      -2.36145053      -2.25454088       0.00000000 </v>
   <v>       0.00000000       0.00000000      -2.84732347 </v>
  </varray>
  <energy>
   <i name="e_fr_energy">    -14.21123648 </i>
   <i name="e_wo_entrp">    -14.21123648 </i>
   <i name="e_0_energy">     -0.00000000 </i>
  </energy>
  <kpoints>
   <varray name="kpointlist" >
    <v>       0.00000000       0.00000000       0.00000000 </v>
   </varray>
   <varray name="weights" >
    <v>       1.00000000 </v>
   </varray>
  </kpoints>
  <time name="totalsc">    1.30    1.34</time>
 </calculation>
 <calculation>
  <scstep>
   <time name="dav">    0.04    0.04</time>
   <time name="total">    0.10    0.10</time>
   <energy>
    <i name="alphaZ">      0.44832783 </i>
    <i name="ewald">     22.01833713 </i>
    <i name="hartreedc">   -418.13978864 </i>
    <i name="XCdc">     34.03771045 </i>
    <i name="pawpsdc">    328.84765390 </i>
    <i name="pawaedc">   -330.95654174 </i>
    <i name="eentropy">     -0.00000000 </i>
    <i name="bandstr">   -107.69509170 </i>
    <i name="atom">    457.22046137 </i>
    <i name="e_fr_energy">    -14.21893141 </i>
    <i name="e_wo_entrp">    -14.21893141 </i>
    <i name="e_0_energy">    -14.21893141 </i>
   </energy>
  </scstep>
  <scstep>
   <time name="dav">    0.08    0.08</time>
   <time name="total">    0.14    0.14</time>
   <energy>
    <i name="e_fr_energy">    -14.22004473 </i>
    <i name="e_wo_entrp">    -14.22004473 </i>
    <i name="e_0_energy">    -14.22004473 </i>
   </energy>
  </scstep>
  <scstep>
   <time name="dav">    0.08    0.08</time>
   <time name="total">    0.14    0.14</time>
   <energy>
    <i name="e_fr_energy">    -14.21960260 </i>
    <i name="e_wo_entrp">    -14.21960260 </i>
    <i name="e_0_energy">    -14.21960260 </i>
   </energy>
  </scstep>
  <scstep>
   <time name="dav">    0.06    0.05</time>
   <time name="total">    0.11    0.13</time>
   <energy>
    <i name="e_fr_energy">    -14.21977175 </i>
    <i name="e_wo_entrp">    -14.21977175 </i>
    <i name="e_0_energy">    -14.21977175 </i>
   </energy>
  </scstep>
  <scstep>
   <time name="dav">    0.08    0.07</time>
   <time name="total">    0.14    0.14</time>
   <energy>
    <i name="e_fr_energy">    -14.21981806 </i>
    <i name="e_wo_entrp">    -14.21981806 </i>
    <i name="e_0_energy">    -14.21981806 </i>
   </energy>
  </scstep>
  <scstep>
   <time name="dav">    0.05    0.05</time>
   <time name="total">    0.11    0.12</time>
   <energy>
    <i name="e_fr_energy">    -14.21983977 </i>
    <i name="e_wo_entrp">    -14.21983977 </i>
    <i name="e_0_energy">    -14.21983977 </i>
   </energy>
  </scstep>
  <scstep>
   <time name="dav">    0.08    0.07</time>
   <time name="total">    0.14    0.14</time>
   <energy>
    <i name="e_fr_energy">    -14.21986093 </i>
    <i name="e_wo_entrp">    -14.21986093 </i>
    <i name="e_0_energy">    -14.21986093 </i>
   </energy>
  </scstep>
  <scstep>
   <time name="dav">    0.07    0.07</time>
   <time name="total">    0.14    0.14</time>
   <energy>
    <i name="e_fr_energy">    -14.21988044 </i>
    <i name="e_wo_entrp">    -14.21988044 </i>
    <i name="e_0_energy">    -14.21988044 </i>
   </energy>
  </scstep>
  <scstep>
   <time name="dav">    0.07    0.07</time>
   <time name="total">    0.12    0.13</time>
   <energy>
    <i name="alphaZ">      0.44832783 </i>
    <i name="ewald">     22.01833713 </i>
    <i name="hartreedc">   -417.82359998 </i>
    <i name="XCdc">     34.01993213 </i>
    <i name="pawpsdc">    327.00380201 </i>
    <i name="pawaedc">   -329.10096818 </i>
    <i name="eentropy">     -0.00000000 </i>
    <i name="bandstr">   -108.00617741 </i>
    <i name="atom">    457.22046137 </i>
    <i name="e_fr_energy">    -14.21988511 </i>
    <i name="e_wo_entrp">    -14.21988511 </i>
    <i name="e_0_energy">    -14.21988511 </i>
   </energy>
  </scstep>
  <structure>
   <crystal>
    <varray name="basis" >
     <v>       7.93770000       0.00000000       0.00000000 </v>
     <v>       0.00000000       7.93770000       0.00000000 </v>
     <v>       0.00000000       0.00000000       7.93770000 </v>
    </varray>
    <i name="volume">    500.13130916 </i>
    <varray name="rec_basis" >
     <v>       0.12598108       0.00000000       0.00000000 </v>
     <v>       0.00000000       0.12598108       0.00000000 </v>
     <v>       0.00000000       0.00000000       0.12598108 </v>
    </varray>
   </crystal>
   <varray name="positions" >
    <v>       0.00000000       0.00000000       0.00000000 </v>
    <v>       0.07765007       0.90318071       0.00000000 </v>
    <v>       0.07513045       0.09681929       0.00000000 </v>
   </varray>
  </structure>
  <varray name="forces" >
   <v>       0.39995854      -0.46182841       0.00000000 </v>
   <v>      -0.38463771       0.40517375       0.00000000 </v>
   <v>      -0.01532084       0.05665467       0.00000000 </v>
  </varray>
  <varray name="stress" >
   <v>      -3.40660747       0.89646108       0.00000000 </v>
   <v>       0.89646108      -3.15967597       0.00000000 </v>
   <v>       0.00000000       0.00000000      -2.84740730 </v>
  </varray>
  <energy>
   <i name="e_fr_energy">    -14.21988511 </i>
   <i name="e_wo_entrp">    -14.21988511 </i>
   <i name="e_0_energy">     -0.00000000 </i>
  </energy>
  <kpoints>
   <varray name="kpointlist" >
    <v>       0.00000000       0.00000000       0.00000000 </v>
   </varray>
   <varray name="weights" >
    <v>       1.00000000 </v>
   </varray>
  </kpoints>
  <time name="totalsc">    1.34    1.39</time>
 </calculation>
 <calculation>
  <scstep>
   <time name="dav">    0.04    0.04</time>
   <time name="total">    0.10    0.10</time>
   <energy>
    <i name="alphaZ">      0.44832783 </i>
    <i name="ewald">     24.23996887 </i>
    <i name="hartreedc">   -418.96002899 </i>
    <i name="XCdc">     34.07501013 </i>
    <i name="pawpsdc">    327.00402344 </i>
    <i name="pawaedc">   -329.10119088 </i>
    <i name="eentropy">     -0.00000000 </i>
    <i name="bandstr">   -109.14734205 </i>
    <i name="atom">    457.22046137 </i>
    <i name="e_fr_energy">    -14.22077030 </i>
    <i name="e_wo_entrp">    -14.22077030 </i>
    <i name="e_0_energy">    -14.22077030 </i>
   </energy>
  </scstep>
  <scstep>
   <time name="dav">    0.08    0.08</time>
   <time name="total">    0.14    0.15</time>
   <energy>
    <i name="e_fr_energy">    -14.21948026 </i>
    <i name="e_wo_entrp">    -14.21948026 </i>
    <i name="e_0_energy">    -14.21948026 </i>
   </energy>
  </scstep>
  <scstep>
   <time name="dav">    0.06    0.05</time>
   <time name="total">    0.12    0.12</time>
   <energy>
    <i name="e_fr_energy">    -14.21951636 </i>
    <i name="e_wo_entrp">    -14.21951636 </i>
    <i name="e_0_energy">    -14.21951636 </i>
   </energy>
  </scstep>
  <scstep>
   <time name="dav">    0.05    0.05</time>
   <time name="total">    0.12    0.12</time>
   <energy>
    <i name="e_fr_energy">    -14.21962911 </i>
    <i name="e_wo_entrp">    -14.21962911 </i>
    <i name="e_0_energy">    -14.21962911 </i>
   </energy>
  </scstep>
  <scstep>
   <time name="dav">    0.07    0.08</time>
   <time name="total">    0.14    0.14</time>
   <energy>
    <i name="e_fr_energy">    -14.21967634 </i>
    <i name="e_wo_entrp">    -14.21967634 </i>
    <i name="e_0_energy">    -14.21967634 </i>
   </energy>
  </scstep>
  <scstep>
   <time name="dav">    0.04    0.04</time>
   <time name="total">    0.10    0.11</time>
   <energy>
    <i name="e_fr_energy">    -14.21971232 </i>
    <i name="e_wo_entrp">    -14.21971232 </i>
    <i name="e_0_energy">    -14.21971232 </i>
   </energy>
  </scstep>
  <scstep>
   <time name="dav">    0.06    0.05</time>
   <time name="total">    0.12    0.12</time>
   <energy>
    <i name="e_fr_energy">    -14.21974269 </i>
    <i name="e_wo_entrp">    -14.21974269 </i>
    <i name="e_0_energy">    -14.21974269 </i>
   </energy>
  </scstep>
  <scstep>
   <time name="dav">    0.07    0.07</time>
   <time name="total">    0.14    0.14</time>
   <energy>
    <i name="e_fr_energy">    -14.21976252 </i>
    <i name="e_wo_entrp">    -14.21976252 </i>
    <i name="e_0_energy">    -14.21976252 </i>
   </energy>
  </scstep>
  <scstep>
   <time name="dav">    0.07    0.07</time>
   <time name="total">    0.12    0.13</time>
   <energy>
    <i name="alphaZ">      0.44832783 </i>
    <i name="ewald">     24.23996887 </i>
    <i name="hartreedc">   -419.61434927 </i>
    <i name="XCdc">     34.11111531 </i>
    <i name="pawpsdc">    330.50531638 </i>
    <i name="pawaedc">   -332.62521806 </i>
    <i name="eentropy">     -0.00000000 </i>
    <i name="bandstr">   -108.50539274 </i>
    <i name="atom">    457.22046137 </i>
    <i name="e_fr_energy">    -14.21977031 </i>
    <i name="e_wo_entrp">    -14.21977031 </i>
    <i name="e_0_energy">    -14.21977031 </i>
   </energy>
  </scstep>
  <structure>
   <crystal>
    <varray name="basis" >
     <v>       7.93770000       0.00000000       0.00000000 </v>
     <v>       0.00000000       7.93770000       0.00000000 </v>
     <v>       0.00000000       0.00000000       7.93770000 </v>
    </varray>
    <i name="volume">    500.13130916 </i>
    <varray name="rec_basis" >
     <v>       0.12598108       0.00000000       0.00000000 </v>
     <v>       0.00000000       0.12598108       0.00000000 </v>
     <v>       0.00000000       0.00000000       0.12598108 </v>
    </varray>
   </crystal>
   <varray name="positions" >
    <v>       0.00000000       0.00000000       0.00000000 </v>
    <v>       0.07261083       0.90318071       0.00000000 </v>
    <v>       0.07513045       0.09681929       0.00000000 </v>
   </varray>
  </structure>
  <varray name="forces" >
   <v>      -0.41780471       0.50633632       0.00000000 </v>
   <v>       0.39985830      -0.44713333       0.00000000 </v>
   <v>       0.01794641      -0.05920299       0.00000000 </v>
  </varray>
  <varray name="stress" >
   <v>      -1.85844806      -0.92914842       0.00000000 </v>
   <v>      -0.92914842      -1.35853991       0.00000000 </v>
   <v>       0.00000000       0.00000000      -2.84466260 </v>
  </varray>
  <energy>
   <i name="e_fr_energy">    -14.21977031 </i>
   <i name="e_wo_entrp">    -14.21977031 </i>
   <i name="e_0_energy">     -0.00000000 </i>
  </energy>
  <kpoints>
   <varray name="kpointlist" >
    <v>       0.00000000       0.00000000       0.00000000 </v>
   </varray>
   <varray name="weights" >
    <v>       1.00000000 </v>
   </varray>
  </kpoints>
  <time name="totalsc">    1.28    1.33</time>
 </calculation>
 <calculation>
  <scstep>
   <time name="dav">    0.04    0.04</time>
   <time name="total">    0.10    0.10</time>
   <energy>
    <i name="alphaZ">      0.44832783 </i>
    <i name="ewald">     24.69489446 </i>
    <i name="hartreedc">   -419.86055343 </i>
    <i name="XCdc">     34.12434905 </i>
    <i name="pawpsdc">    330.50697810 </i>
    <i name="pawaedc">   -332.62689069 </i>
    <i name="eentropy">     -0.00000000 </i>
    <i name="bandstr">   -108.72397890 </i>
    <i name="atom">    457.22046137 </i>
    <i name="e_fr_energy">    -14.21641221 </i>
    <i name="e_wo_entrp">    -14.21641221 </i>
    <i name="e_0_energy">    -14.21641221 </i>
   </energy>
  </scstep>
  <scstep>
   <time name="dav">    0.06    0.06</time>
   <time name="total">    0.12    0.12</time>
   <energy>
    <i name="e_fr_energy">    -14.21652608 </i>
    <i name="e_wo_entrp">    -14.21652608 </i>
    <i name="e_0_energy">    -14.21652608 </i>
   </energy>
  </scstep>
  <scstep>
   <time name="dav">    0.08    0.08</time>
   <time name="total">    0.14    0.14</time>
   <energy>
    <i name="e_fr_energy">    -14.21663275 </i>
    <i name="e_wo_entrp">    -14.21663275 </i>
    <i name="e_0_energy">    -14.21663275 </i>
   </energy>
  </scstep>
  <scstep>
   <time name="dav">    0.08    0.08</time>
   <time name="total">    0.14    0.14</time>
   <energy>
    <i name="e_fr_energy">    -14.21665175 </i>
    <i name="e_wo_entrp">    -14.21665175 </i>
    <i name="e_0_energy">    -14.21665175 </i>
   </energy>
  </scstep>
  <scstep>
   <time name="dav">    0.08    0.07</time>
   <time name="total">    0.14    0.14</time>
   <energy>
    <i name="e_fr_energy">    -14.21668279 </i>
    <i name="e_wo_entrp">    -14.21668279 </i>
    <i name="e_0_energy">    -14.21668279 </i>
   </energy>
  </scstep>
  <scstep>
   <time name="dav">    0.08    0.08</time>
   <time name="total">    0.14    0.14</time>
   <energy>
    <i name="e_fr_energy">    -14.21671935 </i>
    <i name="e_wo_entrp">    -14.21671935 </i>
    <i name="e_0_energy">    -14.21671935 </i>
   </energy>
  </scstep>
  <scstep>
   <time name="dav">    0.05    0.05</time>
   <time name="total">    0.12    0.12</time>
   <energy>
    <i name="e_fr_energy">    -14.21675822 </i>
    <i name="e_wo_entrp">    -14.21675822 </i>
    <i name="e_0_energy">    -14.21675822 </i>
   </energy>
  </scstep>
  <scstep>
   <time name="dav">    0.08    0.07</time>
   <time name="total">    0.14    0.14</time>
   <energy>
    <i name="e_fr_energy">    -14.21676956 </i>
    <i name="e_wo_entrp">    -14.21676956 </i>
    <i name="e_0_energy">    -14.21676956 </i>
   </energy>
  </scstep>
  <scstep>
   <time name="dav">    0.06    0.05</time>
   <time name="total">    0.10    0.10</time>
   <energy>
    <i name="alphaZ">      0.44832783 </i>
    <i name="ewald">     24.69489446 </i>
    <i name="hartreedc">   -419.91315472 </i>
    <i name="XCdc">     34.12671010 </i>
    <i name="pawpsdc">    330.93015309 </i>
    <i name="pawaedc">   -333.04588925 </i>
    <i name="eentropy">     -0.00000000 </i>
    <i name="bandstr">   -108.67827793 </i>
    <i name="atom">    457.22046137 </i>
    <i name="e_fr_energy">    -14.21677506 </i>
    <i name="e_wo_entrp">    -14.21677506 </i>
    <i name="e_0_energy">    -14.21677506 </i>
   </energy>
  </scstep>
  <structure>
   <crystal>
    <varray name="basis" >
     <v>       7.93770000       0.00000000       0.00000000 </v>
     <v>       0.00000000       7.93770000       0.00000000 </v>
     <v>       0.00000000       0.00000000       7.93770000 </v>
    </varray>
    <i name="volume">    500.13130916 </i>
    <varray name="rec_basis" >
     <v>       0.12598108       0.00000000       0.00000000 </v>
     <v>       0.00000000       0.12598108       0.00000000 </v>
     <v>       0.00000000       0.00000000       0.12598108 </v>
    </varray>
   </crystal>
   <varray name="positions" >
    <v>       0.00000000       0.00000000       0.00000000 </v>
    <v>       0.07513045       0.90570033       0.00000000 </v>
    <v>       0.07513045       0.09681929       0.00000000 </v>
   </varray>
  </structure>
  <varray name="forces" >
   <v>      -0.40251562       0.64999238       0.00000000 </v>
   <v>       0.45970651      -0.70903624       0.00000000 </v>
   <v>      -0.05719088       0.05904386       0.00000000 </v>
  </varray>
  <varray name="stress" >
   <v>      -1.86356573      -1.23369599       0.00000000 </v>
   <v>      -1.23369599      -0.47215253       0.00000000 </v>
   <v>       0.00000000       0.00000000      -2.84701971 </v>
  </varray>
  <energy>
   <i name="e_fr_energy">    -14.21677506 </i>
   <i name="e_wo_entrp">    -14.21677506 </i>
   <i name="e_0_energy">     -0.00000000 </i>
  </energy>
  <kpoints>
   <varray name="kpointlist" >
    <v>       0.00000000       0.00000000       0.00000000 </v>
   </varray>
   <varray name="weights" >
    <v>       1.00000000 </v>
   </varray>
  </kpoints>
  <time name="totalsc">    1.32    1.36</time>
 </calculation>
 <calculation>
  <scstep>
   <time name="dav">    0.04    0.04</time>
   <time name="total">    0.10    0.10</time>
   <energy>
    <i name="alphaZ">      0.44832783 </i>
    <i name="ewald">     21.59618328 </i>
    <i name="hartreedc">   -418.29107780 </i>
    <i name="XCdc">     34.04682334 </i>
    <i name="pawpsdc">    330.93003303 </i>
    <i name="pawaedc">   -333.04575898 </i>
    <i name="eentropy">     -0.00000000 </i>
    <i name="bandstr">   -107.12362765 </i>
    <i name="atom">    457.22046137 </i>
    <i name="e_fr_energy">    -14.21863558 </i>
    <i name="e_wo_entrp">    -14.21863558 </i>
    <i name="e_0_energy">    -14.21863558 </i>
   </energy>
  </scstep>
  <scstep>
   <time name="dav">    0.06    0.06</time>
   <time name="total">    0.12    0.12</time>
   <energy>
    <i name="e_fr_energy">    -14.21710119 </i>
    <i name="e_wo_entrp">    -14.21710119 </i>
    <i name="e_0_energy">    -14.21710119 </i>
   </energy>
  </scstep>
  <scstep>
   <time name="dav">    0.06    0.05</time>
   <time name="total">    0.12    0.12</time>
   <energy>
    <i name="e_fr_energy">    -14.21694290 </i>
    <i name="e_wo_entrp">    -14.21694290 </i>
    <i name="e_0_energy">    -14.21694290 </i>
   </energy>
  </scstep>
  <scstep>
   <time name="dav">    0.06    0.05</time>
   <time name="total">    0.12    0.12</time>
   <energy>
    <i name="e_fr_energy">    -14.21698021 </i>
    <i name="e_wo_entrp">    -14.21698021 </i>
    <i name="e_0_energy">    -14.21698021 </i>
   </energy>
  </scstep>
  <scstep>
   <time name="dav">    0.08    0.08</time>
   <time name="total">    0.14    0.14</time>
   <energy>
    <i name="e_fr_energy">    -14.21701911 </i>
    <i name="e_wo_entrp">    -14.21701911 </i>
    <i name="e_0_energy">    -14.21701911 </i>
   </energy>
  </scstep>
  <scstep>
   <time name="dav">    0.08    0.07</time>
   <time name="total">    0.14    0.14</time>
   <energy>
    <i name="e_fr_energy">    -14.21704378 </i>
    <i name="e_wo_entrp">    -14.21704378 </i>
    <i name="e_0_energy">    -14.21704378 </i>
   </energy>
  </scstep>
  <scstep>
   <time name="dav">    0.04    0.04</time>
   <time name="total">    0.10    0.11</time>
   <energy>
    <i name="e_fr_energy">    -14.21708973 </i>
    <i name="e_wo_entrp">    -14.21708973 </i>
    <i name="e_0_energy">    -14.21708973 </i>
   </energy>
  </scstep>
  <scstep>
   <time name="dav">    0.08    0.07</time>
   <time name="total">    0.14    0.14</time>
   <energy>
    <i name="e_fr_energy">    -14.21710903 </i>
    <i name="e_wo_entrp">    -14.21710903 </i>
    <i name="e_0_energy">    -14.21710903 </i>
   </energy>
  </scstep>
  <scstep>
   <time name="dav">    0.06    0.05</time>
   <time name="total">    0.12    0.12</time>
   <energy>
    <i name="e_fr_energy">    -14.21711989 </i>
    <i name="e_wo_entrp">    -14.21711989 </i>
    <i name="e_0_energy">    -14.21711989 </i>
   </energy>
  </scstep>
  <scstep>
   <time name="dav">    0.06    0.05</time>
   <time name="total">    0.10    0.11</time>
   <energy>
    <i name="alphaZ">      0.44832783 </i>
    <i name="ewald">     21.59618328 </i>
    <i name="hartreedc">   -417.54546054 </i>
    <i name="XCdc">     34.00550017 </i>
    <i name="pawpsdc">    326.65066541 </i>
    <i name="pawaedc">   -328.75210334 </i>
    <i name="eentropy">     -0.00000000 </i>
    <i name="bandstr">   -107.84069618 </i>
    <i name="atom">    457.22046137 </i>
    <i name="e_fr_energy">    -14.21712200 </i>
    <i name="e_wo_entrp">    -14.21712200 </i>
    <i name="e_0_energy">    -14.21712200 </i>
   </energy>
  </scstep>
  <structure>
   <crystal>
    <varray name="basis" >
     <v>       7.93770000       0.00000000       0.00000000 </v>
     <v>       0.00000000       7.93770000       0.00000000 </v>
     <v>       0.00000000       0.00000000       7.93770000 </v>
    </varray>
    <i name="volume">    500.13130916 </i>
    <varray name="rec_basis" >
     <v>       0.12598108       0.00000000       0.00000000 </v>
     <v>       0.00000000       0.12598108       0.00000000 </v>
     <v>       0.00000000       0.00000000       0.12598108 </v>
    </varray>
   </crystal>
   <varray name="positions" >
    <v>       0.00000000       0.00000000       0.00000000 </v>
    <v>       0.07513045       0.90066109       0.00000000 </v>
    <v>       0.07513045       0.09681929       0.00000000 </v>
   </varray>
  </structure>
  <varray name="forces" >
   <v>       0.33570711      -0.59646326       0.00000000 </v>
   <v>      -0.39425837       0.65259790       0.00000000 </v>
   <v>       0.05855125      -0.05613464       0.00000000 </v>
  </varray>
  <varray name="stress" >
   <v>      -3.25767136       1.12809996       0.00000000 </v>
   <v>       1.12809995      -4.07892603       0.00000000 </v>
   <v>       0.00000000       0.00000000      -2.84531086 </v>
  </varray>
  <energy>
   <i name="e_fr_energy">    -14.21712200 </i>
   <i name="e_wo_entrp">    -14.21712200 </i>
   <i name="e_0_energy">     -0.00000000 </i>
  </energy>
  <kpoints>
   <varray name="kpointlist" >
    <v>       0.00000000       0.00000000       0.00000000 </v>
   </varray>
   <varray name="weights" >
    <v>       1.00000000 </v>
   </varray>
  </kpoints>
  <time name="totalsc">    1.38    1.42</time>
 </calculation>
 <calculation>
  <scstep>
   <time name="dav">    0.04    0.04</time>
   <time name="total">    0.10    0.11</time>
   <energy>
    <i name="alphaZ">      0.44832783 </i>
    <i name="ewald">     22.01833713 </i>
    <i name="hartreedc">   -417.78187226 </i>
    <i name="XCdc">     34.01811661 </i>
    <i name="pawpsdc">    326.65032010 </i>
    <i name="pawaedc">   -328.75176221 </i>
    <i name="eentropy">     -0.00000000 </i>
    <i name="bandstr">   -108.04136937 </i>
    <i name="atom">    457.22046137 </i>
    <i name="e_fr_energy">    -14.21944081 </i>
    <i name="e_wo_entrp">    -14.21944081 </i>
    <i name="e_0_energy">    -14.21944081 </i>
   </energy>
  </scstep>
  <scstep>
   <time name="dav">    0.06    0.05</time>
   <time name="total">    0.12    0.12</time>
   <energy>
    <i name="e_fr_energy">    -14.21979952 </i>
    <i name="e_wo_entrp">    -14.21979952 </i>
    <i name="e_0_energy">    -14.21979952 </i>
   </energy>
  </scstep>
  <scstep>
   <time name="dav">    0.08    0.08</time>
   <time name="total">    0.14    0.14</time>
   <energy>
    <i name="e_fr_energy">    -14.21974902 </i>
    <i name="e_wo_entrp">    -14.21974902 </i>
    <i name="e_0_energy">    -14.21974902 </i>
   </energy>
  </scstep>
  <scstep>
   <time name="dav">    0.07    0.07</time>
   <time name="total">    0.14    0.14</time>
   <energy>
    <i name="e_fr_energy">    -14.21977108 </i>
    <i name="e_wo_entrp">    -14.21977108 </i>
    <i name="e_0_energy">    -14.21977108 </i>
   </energy>
  </scstep>
  <scstep>
   <time name="dav">    0.06    0.05</time>
   <time name="total">    0.12    0.12</time>
   <energy>
    <i name="e_fr_energy">    -14.21979321 </i>
    <i name="e_wo_entrp">    -14.21979321 </i>
    <i name="e_0_energy">    -14.21979321 </i>
   </energy>
  </scstep>
  <scstep>
   <time name="dav">    0.06    0.05</time>
   <time name="total">    0.12    0.12</time>
   <energy>
    <i name="e_fr_energy">    -14.21982672 </i>
    <i name="e_wo_entrp">    -14.21982672 </i>
    <i name="e_0_energy">    -14.21982672 </i>
   </energy>
  </scstep>
  <scstep>
   <time name="dav">    0.05    0.05</time>
   <time name="total">    0.12    0.12</time>
   <energy>
    <i name="e_fr_energy">    -14.21986315 </i>
    <i name="e_wo_entrp">    -14.21986315 </i>
    <i name="e_0_energy">    -14.21986315 </i>
   </energy>
  </scstep>
  <scstep>
   <time name="dav">    0.08    0.07</time>
   <time name="total">    0.14    0.14</time>
   <energy>
    <i name="e_fr_energy">    -14.21987627 </i>
    <i name="e_wo_entrp">    -14.21987627 </i>
    <i name="e_0_energy">    -14.21987627 </i>
   </energy>
  </scstep>
  <scstep>
   <time name="dav">    0.06    0.05</time>
   <time name="total">    0.10    0.11</time>
   <energy>
    <i name="alphaZ">      0.44832783 </i>
    <i name="ewald">     22.01833713 </i>
    <i name="hartreedc">   -417.82349555 </i>
    <i name="XCdc">     34.01992836 </i>
    <i name="pawpsdc">    327.00423607 </i>
    <i name="pawaedc">   -329.10142087 </i>
    <i name="eentropy">     -0.00000000 </i>
    <i name="bandstr">   -108.00625865 </i>
    <i name="atom">    457.22046137 </i>
    <i name="e_fr_energy">    -14.21988432 </i>
    <i name="e_wo_entrp">    -14.21988432 </i>
    <i name="e_0_energy">    -14.21988432 </i>
   </energy>
  </scstep>
  <structure>
   <crystal>
    <varray name="basis" >
     <v>       7.93770000       0.00000000       0.00000000 </v>
     <v>       0.00000000       7.93770000       0.00000000 </v>
     <v>       0.00000000       0.00000000       7.93770000 </v>
    </varray>
    <i name="volume">    500.13130916 </i>
    <varray name="rec_basis" >
     <v>       0.12598108       0.00000000       0.00000000 </v>
     <v>       0.00000000       0.12598108       0.00000000 </v>
     <v>       0.00000000       0.00000000       0.12598108 </v>
    </varray>
   </crystal>
   <varray name="positions" >
    <v>       0.00000000       0.00000000       0.00000000 </v>
    <v>       0.07513045       0.90318071       0.00000000 </v>
    <v>       0.07765007       0.09681929       0.00000000 </v>
   </varray>
  </structure>
  <varray name="forces" >
   <v>       0.39992470       0.46175076       0.00000000 </v>
   <v>      -0.01530251      -0.05662782       0.00000000 </v>
   <v>      -0.38462219      -0.40512294       0.00000000 </v>
  </varray>
  <varray name="stress" >
   <v>      -3.40687412      -0.89668401       0.00000000 </v>
   <v>      -0.89668400      -3.15998703       0.00000000 </v>
   <v>       0.00000000       0.00000000      -2.84765592 </v>
  </varray>
  <energy>
   <i name="e_fr_energy">    -14.21988432 </i>
   <i name="e_wo_entrp">    -14.21988432 </i>
   <i name="e_0_energy">     -0.00000000 </i>
  </energy>
  <kpoints>
   <varray name="kpointlist" >
    <v>       0.00000000       0.00000000       0.00000000 </v>
   </varray>
   <varray name="weights" >
    <v>       1.00000000 </v>
   </varray>
  </kpoints>
  <time name="totalsc">    1.28    1.33</time>
 </calculation>
 <calculation>
  <scstep>
   <time name="dav">    0.04    0.04</time>
   <time name="total">    0.10    0.10</time>
   <energy>
    <i name="alphaZ">      0.44832783 </i>
    <i name="ewald">     24.23996887 </i>
    <i name="hartreedc">   -418.95983375 </i>
    <i name="XCdc">     34.07500111 </i>
    <i name="pawpsdc">    327.00395649 </i>
    <i name="pawaedc">   -329.10113402 </i>
    <i name="eentropy">     -0.00000000 </i>
    <i name="bandstr">   -109.14747038 </i>
    <i name="atom">    457.22046137 </i>
    <i name="e_fr_energy">    -14.22072249 </i>
    <i name="e_wo_entrp">    -14.22072249 </i>
    <i name="e_0_energy">    -14.22072249 </i>
   </energy>
  </scstep>
  <scstep>
   <time name="dav">    0.06    0.06</time>
   <time name="total">    0.12    0.13</time>
   <energy>
    <i name="e_fr_energy">    -14.21947946 </i>
    <i name="e_wo_entrp">    -14.21947946 </i>
    <i name="e_0_energy">    -14.21947946 </i>
   </energy>
  </scstep>
  <scstep>
   <time name="dav">    0.06    0.05</time>
   <time name="total">    0.12    0.12</time>
   <energy>
    <i name="e_fr_energy">    -14.21952354 </i>
    <i name="e_wo_entrp">    -14.21952354 </i>
    <i name="e_0_energy">    -14.21952354 </i>
   </energy>
  </scstep>
  <scstep>
   <time name="dav">    0.08    0.08</time>
   <time name="total">    0.14    0.15</time>
   <energy>
    <i name="e_fr_energy">    -14.21963025 </i>
    <i name="e_wo_entrp">    -14.21963025 </i>
    <i name="e_0_energy">    -14.21963025 </i>
   </energy>
  </scstep>
  <scstep>
   <time name="dav">    0.04    0.04</time>
   <time name="total">    0.10    0.10</time>
   <energy>
    <i name="e_fr_energy">    -14.21966430 </i>
    <i name="e_wo_entrp">    -14.21966430 </i>
    <i name="e_0_energy">    -14.21966430 </i>
   </energy>
  </scstep>
  <scstep>
   <time name="dav">    0.08    0.08</time>
   <time name="total">    0.14    0.14</time>
   <energy>
    <i name="e_fr_energy">    -14.21970893 </i>
    <i name="e_wo_entrp">    -14.21970893 </i>
    <i name="e_0_energy">    -14.21970893 </i>
   </energy>
  </scstep>
  <scstep>
   <time name="dav">    0.06    0.05</time>
   <time name="total">    0.12    0.12</time>
   <energy>
    <i name="e_fr_energy">    -14.21973632 </i>
    <i name="e_wo_entrp">    -14.21973632 </i>
    <i name="e_0_energy">    -14.21973632 </i>
   </energy>
  </scstep>
  <scstep>
   <time name="dav">    0.08    0.08</time>
   <time name="total">    0.14    0.14</time>
   <energy>
    <i name="e_fr_energy">    -14.21975687 </i>
    <i name="e_wo_entrp">    -14.21975687 </i>
    <i name="e_0_energy">    -14.21975687 </i>
   </energy>
  </scstep>
  <scstep>
   <time name="dav">    0.07    0.07</time>
   <time name="total">    0.14    0.14</time>
   <energy>
    <i name="e_fr_energy">    -14.21976950 </i>
    <i name="e_wo_entrp">    -14.21976950 </i>
    <i name="e_0_energy">    -14.21976950 </i>
   </energy>
  </scstep>
  <scstep>
   <time name="dav">    0.06    0.05</time>
   <time name="total">    0.10    0.11</time>
   <energy>
    <i name="alphaZ">      0.44832783 </i>
    <i name="ewald">     24.23996887 </i>
    <i name="hartreedc">   -419.61458170 </i>
    <i name="XCdc">     34.11112847 </i>
    <i name="pawpsdc">    330.50624296 </i>
    <i name="pawaedc">   -332.62615240 </i>
    <i name="eentropy">     -0.00000000 </i>
    <i name="bandstr">   -108.50516751 </i>
    <i name="atom">    457.22046137 </i>
    <i name="e_fr_energy">    -14.21977213 </i>
    <i name="e_wo_entrp">    -14.21977213 </i>
    <i name="e_0_energy">    -14.21977213 </i>
   </energy>
  </scstep>
  <structure>
   <crystal>
    <varray name="basis" >
     <v>       7.93770000       0.00000000       0.00000000 </v>
     <v>       0.00000000       7.93770000       0.00000000 </v>
     <v>       0.00000000       0.00000000       7.93770000 </v>
    </varray>
    <i name="volume">    500.13130916 </i>
    <varray name="rec_basis" >
     <v>       0.12598108       0.00000000       0.00000000 </v>
     <v>       0.00000000       0.12598108       0.00000000 </v>
     <v>       0.00000000       0.00000000       0.12598108 </v>
    </varray>
   </crystal>
   <varray name="positions" >
    <v>       0.00000000       0.00000000       0.00000000 </v>
    <v>       0.07513045       0.90318071       0.00000000 </v>
    <v>       0.07261083       0.09681929       0.00000000 </v>
   </varray>
  </structure>
  <varray name="forces" >
   <v>      -0.41783742      -0.50634415       0.00000000 </v>
   <v>       0.01795806       0.05918790       0.00000000 </v>
   <v>       0.39987936       0.44715624       0.00000000 </v>
  </varray>
  <varray name="stress" >
   <v>      -1.85924772       0.92908624       0.00000000 </v>
   <v>       0.92908625      -1.35921913       0.00000000 </v>
   <v>       0.00000000       0.00000000      -2.84556060 </v>
  </varray>
  <energy>
   <i name="e_fr_energy">    -14.21977213 </i>
   <i name="e_wo_entrp">    -14.21977213 </i>
   <i name="e_0_energy">     -0.00000000 </i>
  </energy>
  <kpoints>
   <varray name="kpointlist" >
    <v>       0.00000000       0.00000000       0.00000000 </v>
   </varray>
   <varray name="weights" >
    <v>       1.00000000 </v>
   </varray>
  </kpoints>
  <time name="totalsc">    3.11    3.19</time>
 </calculation>
 <calculation>
  <scstep>
   <time name="dav">    0.04    0.04</time>
   <time name="total">    0.10    0.10</time>
   <energy>
    <i name="alphaZ">      0.44832783 </i>
    <i name="ewald">     21.59618328 </i>
    <i name="hartreedc">   -418.23863280 </i>
    <i name="XCdc">     34.04399851 </i>
    <i name="pawpsdc">    330.50709508 </i>
    <i name="pawaedc">   -332.62700238 </i>
    <i name="eentropy">     -0.00000000 </i>
    <i name="bandstr">   -107.16907280 </i>
    <i name="atom">    457.22046137 </i>
    <i name="e_fr_energy">    -14.21864191 </i>
    <i name="e_wo_entrp">    -14.21864191 </i>
    <i name="e_0_energy">    -14.21864191 </i>
   </energy>
  </scstep>
  <scstep>
   <time name="dav">    0.05    0.06</time>
   <time name="total">    0.12    0.12</time>
   <energy>
    <i name="e_fr_energy">    -14.21717358 </i>
    <i name="e_wo_entrp">    -14.21717358 </i>
    <i name="e_0_energy">    -14.21717358 </i>
   </energy>
  </scstep>
  <scstep>
   <time name="dav">    0.05    0.05</time>
   <time name="total">    0.12    0.12</time>
   <energy>
    <i name="e_fr_energy">    -14.21706186 </i>
    <i name="e_wo_entrp">    -14.21706186 </i>
    <i name="e_0_energy">    -14.21706186 </i>
   </energy>
  </scstep>
  <scstep>
   <time name="dav">    0.08    0.08</time>
   <time name="total">    0.14    0.14</time>
   <energy>
    <i name="e_fr_energy">    -14.21708158 </i>
    <i name="e_wo_entrp">    -14.21708158 </i>
    <i name="e_0_energy">    -14.21708158 </i>
   </energy>
  </scstep>
  <scstep>
   <time name="dav">    0.08    0.07</time>
   <time name="total">    0.14    0.15</time>
   <energy>
    <i name="e_fr_energy">    -14.21709380 </i>
    <i name="e_wo_entrp">    -14.21709380 </i>
    <i name="e_0_energy">    -14.21709380 </i>
   </energy>
  </scstep>
  <scstep>
   <time name="dav">    0.08    0.08</time>
   <time name="total">    0.12    0.12</time>
   <energy>
    <i name="alphaZ">      0.44832783 </i>
    <i name="ewald">     21.59618328 </i>
    <i name="hartreedc">   -417.54248027 </i>
    <i name="XCdc">     34.00540703 </i>
    <i name="pawpsdc">    326.65437416 </i>
    <i name="pawaedc">   -328.75572600 </i>
    <i name="eentropy">     -0.00000000 </i>
    <i name="bandstr">   -107.84364999 </i>
    <i name="atom">    457.22046137 </i>
    <i name="e_fr_energy">    -14.21710260 </i>
    <i name="e_wo_entrp">    -14.21710260 </i>
    <i name="e_0_energy">    -14.21710260 </i>
   </energy>
  </scstep>
  <structure>
   <crystal>
    <varray name="basis" >
     <v>       7.93770000       0.00000000       0.00000000 </v>
     <v>       0.00000000       7.93770000       0.00000000 </v>
     <v>       0.00000000       0.00000000       7.93770000 </v>
    </varray>
    <i name="volume">    500.13130916 </i>
    <varray name="rec_basis" >
     <v>       0.12598108       0.00000000       0.00000000 </v>
     <v>       0.00000000       0.12598108       0.00000000 </v>
     <v>       0.00000000       0.00000000       0.12598108 </v>
    </varray>
   </crystal>
   <varray name="positions" >
    <v>       0.00000000       0.00000000       0.00000000 </v>
    <v>       0.07513045       0.90318071       0.00000000 </v>
    <v>       0.07513045       0.09933891       0.00000000 </v>
   </varray>
  </structure>
  <varray name="forces" >
   <v>       0.33568534       0.59602345       0.00000000 </v>
   <v>       0.05869595       0.05645189       0.00000000 </v>
   <v>      -0.39438130      -0.65247534       0.00000000 </v>
  </varray>
  <varray name="stress" >
   <v>      -3.25398065      -1.12915580       0.00000000 </v>
   <v>      -1.12915580      -4.07555895       0.00000000 </v>
   <v>       0.00000000       0.00000000      -2.84112760 </v>
  </varray>
  <energy>
   <i name="e_fr_energy">    -14.21710260 </i>
   <i name="e_wo_entrp">    -14.21710260 </i>
   <i name="e_0_energy">     -0.00000000 </i>
  </energy>
  <kpoints>
   <varray name="kpointlist" >
    <v>       0.00000000       0.00000000       0.00000000 </v>
   </varray>
   <varray name="weights" >
    <v>       1.00000000 </v>
   </varray>
  </kpoints>
  <time name="totalsc">    0.92    0.96</time>
 </calculation>
 <calculation>
  <scstep>
   <time name="dav">    0.04    0.04</time>
   <time name="total">    0.10    0.10</time>
   <energy>
    <i name="alphaZ">      0.44832783 </i>
    <i name="ewald">     24.69489446 </i>
    <i name="hartreedc">   -419.16465300 </i>
    <i name="XCdc">     34.08597075 </i>
    <i name="pawpsdc">    326.64979258 </i>
    <i name="pawaedc">   -328.75126690 </i>
    <i name="eentropy">     -0.00000000 </i>
    <i name="bandstr">   -109.40154895 </i>
    <i name="atom">    457.22046137 </i>
    <i name="e_fr_energy">    -14.21802186 </i>
    <i name="e_wo_entrp">    -14.21802186 </i>
    <i name="e_0_energy">    -14.21802186 </i>
   </energy>
  </scstep>
  <scstep>
   <time name="dav">    0.05    0.06</time>
   <time name="total">    0.12    0.12</time>
   <energy>
    <i name="e_fr_energy">    -14.21666045 </i>
    <i name="e_wo_entrp">    -14.21666045 </i>
    <i name="e_0_energy">    -14.21666045 </i>
   </energy>
  </scstep>
  <scstep>
   <time name="dav">    0.06    0.05</time>
   <time name="total">    0.12    0.12</time>
   <energy>
    <i name="e_fr_energy">    -14.21653023 </i>
    <i name="e_wo_entrp">    -14.21653023 </i>
    <i name="e_0_energy">    -14.21653023 </i>
   </energy>
  </scstep>
  <scstep>
   <time name="dav">    0.08    0.08</time>
   <time name="total">    0.14    0.14</time>
   <energy>
    <i name="e_fr_energy">    -14.21661010 </i>
    <i name="e_wo_entrp">    -14.21661010 </i>
    <i name="e_0_energy">    -14.21661010 </i>
   </energy>
  </scstep>
  <scstep>
   <time name="dav">    0.07    0.07</time>
   <time name="total">    0.14    0.14</time>
   <energy>
    <i name="e_fr_energy">    -14.21666815 </i>
    <i name="e_wo_entrp">    -14.21666815 </i>
    <i name="e_0_energy">    -14.21666815 </i>
   </energy>
  </scstep>
  <scstep>
   <time name="dav">    0.08    0.08</time>
   <time name="total">    0.14    0.14</time>
   <energy>
    <i name="e_fr_energy">    -14.21669577 </i>
    <i name="e_wo_entrp">    -14.21669577 </i>
    <i name="e_0_energy">    -14.21669577 </i>
   </energy>
  </scstep>
  <scstep>
   <time name="dav">    0.05    0.05</time>
   <time name="total">    0.12    0.12</time>
   <energy>
    <i name="e_fr_energy">    -14.21674275 </i>
    <i name="e_wo_entrp">    -14.21674275 </i>
    <i name="e_0_energy">    -14.21674275 </i>
   </energy>
  </scstep>
  <scstep>
   <time name="dav">    0.08    0.08</time>
   <time name="total">    0.14    0.14</time>
   <energy>
    <i name="e_fr_energy">    -14.21676088 </i>
    <i name="e_wo_entrp">    -14.21676088 </i>
    <i name="e_0_energy">    -14.21676088 </i>
   </energy>
  </scstep>
  <scstep>
   <time name="dav">    0.05    0.05</time>
   <time name="total">    0.12    0.12</time>
   <energy>
    <i name="e_fr_energy">    -14.21677304 </i>
    <i name="e_wo_entrp">    -14.21677304 </i>
    <i name="e_0_energy">    -14.21677304 </i>
   </energy>
  </scstep>
  <scstep>
   <time name="dav">    0.08    0.08</time>
   <time name="total">    0.12    0.12</time>
   <energy>
    <i name="alphaZ">      0.44832783 </i>
    <i name="ewald">     24.69489446 </i>
    <i name="hartreedc">   -419.91305387 </i>
    <i name="XCdc">     34.12670494 </i>
    <i name="pawpsdc">    330.92968539 </i>
    <i name="pawaedc">   -333.04541699 </i>
    <i name="eentropy">     -0.00000000 </i>
    <i name="bandstr">   -108.67837906 </i>
    <i name="atom">    457.22046137 </i>
    <i name="e_fr_energy">    -14.21677594 </i>
    <i name="e_wo_entrp">    -14.21677594 </i>
    <i name="e_0_energy">    -14.21677594 </i>
   </energy>
  </scstep>
  <structure>
   <crystal>
    <varray name="basis" >
     <v>       7.93770000       0.00000000       0.00000000 </v>
     <v>       0.00000000       7.93770000       0.00000000 </v>
     <v>       0.00000000       0.00000000       7.93770000 </v>
    </varray>
    <i name="volume">    500.13130916 </i>
    <varray name="rec_basis" >
[...]
    </varray>
   </crystal>
   <varray name="positions" >
    <v>       0.00000000       0.00000000       0.00000000 </v>
    <v>       0.07513045       0.90318071       0.00000000 </v>
    <v>       0.07513045       0.09429967       0.00000000 </v>
   </varray>
  </structure>
  <varray name="forces" >
   <v>      -0.40251116      -0.65003770       0.00000000 </v>
   <v>      -0.05719558      -0.05902101       0.00000000 </v>
   <v>       0.45970673       0.70905871       0.00000000 </v>
  </varray>
  <varray name="stress" >
   <v>      -1.86347003       1.23363407       0.00000000 </v>
   <v>       1.23363406      -0.47194582       0.00000000 </v>
   <v>       0.00000000       0.00000000      -2.84684524 </v>
  </varray>
  <energy>
   <i name="e_fr_energy">    -14.21677594 </i>
   <i name="e_wo_entrp">    -14.21677594 </i>
   <i name="e_0_energy">     -0.00000000 </i>
  </energy>
  <dynmat>
   <varray name="hessian" >
    <v>      -2.56344224       0.00008272       5.11895241      -4.60914692       5.11894888       4.60906492 </v>
    <v>       0.00008272      -3.90418143      -6.05626770       7.79946749       6.05571863       7.79801033 </v>
    <v>       5.11895241      -6.05626770     -19.61240025      21.32839937      -0.83159770       2.89686481 </v>
    <v>      -4.60914692       7.79946749      21.32839937     -34.04085356      -2.89447320       2.88314258 </v>
    <v>       5.11894888       6.05571863      -0.83159770      -2.89447320     -19.61253883     -21.32959024 </v>
    <v>       4.60906492       7.79801033       2.89686481       2.88314258     -21.32959024     -34.03835126 </v>
   </varray>
   <v name="eigenvalues"> -5.38733499E+01 -5.07180476E+01 -9.21221604E+00 -1.99832634E-03  9.02759731E-06  3.38352601E-02</v>
   <varray name="eigenvectors" >
    <v>   2.65739032E-05 -2.69139144E-01 -4.17787108E-01  5.37928026E-01  4.17672278E-01  5.37774450E-01</v>
    <v>   1.92307774E-01  1.83683986E-05 -3.84227574E-01  5.77707290E-01 -3.84391834E-01 -5.77827048E-01</v>
    <v>   2.73239255E-01  4.08959038E-05 -5.44561981E-01 -4.07699033E-01 -5.44447015E-01  4.07616857E-01</v>
    <v>  -1.22671812E-02 -9.62506678E-01  1.31793084E-01 -1.36090383E-01 -1.37978737E-01 -1.36023051E-01</v>
    <v>   9.42442772E-01 -1.26371940E-02  2.36229727E-01 -2.87449664E-03  2.36256557E-01 -3.46616611E-03</v>
    <v>   3.02753812E-03  3.13897398E-02  5.55068870E-01  4.38338191E-01 -5.53637915E-01  4.38461808E-01</v>
   </varray>
  </dynmat>
  <kpoints>
   <varray name="kpointlist" >
    <v>       0.00000000       0.00000000       0.00000000 </v>
   </varray>
   <varray name="weights" >
    <v>       1.00000000 </v>
   </varray>
  </kpoints>
  <time name="totalsc">    1.44    1.50</time>
  <eigenvalues>
   <array>
    <dimension dim="1">band</dimension>
    <dimension dim="2">kpoint</dimension>
    <dimension dim="3">spin</dimension>
    <field>eigene</field>
    <field>occ</field>
    <set>
     <set comment="spin 1">
      <set comment="kpoint 1">
       <r>  -25.2170    1.0000 </r>
       <r>  -12.9413    1.0000 </r>
       <r>   -9.1398    1.0000 </r>
       <r>   -7.0412    1.0000 </r>
       <r>   -1.0642    0.0000 </r>
       <r>    1.1377    0.0000 </r>
       <r>    1.2624    0.0000 </r>
       <r>    1.7458    0.0000 </r>
       <r>    1.7765    0.0000 </r>
       <r>    1.9949    0.0000 </r>
       <r>    2.0806    0.0000 </r>
       <r>    3.0852    0.0000 </r>
       <r>    3.7749    0.0000 </r>
       <r>    3.8403    0.0000 </r>
       <r>    3.8818    0.0000 </r>
       <r>    4.0714    0.0000 </r>
      </set>
     </set>
    </set>
   </array>
  </eigenvalues>
  <separator name="orbital magnetization" >
   <v name="MAGDIPOLOUT">      0.00000000      0.00000000      0.00000000</v>
  </separator>
  <dos>
   <i name="efermi">     -6.02251251 </i>
   <total>
    <array>
     <dimension dim="1">gridpoints</dimension>
     <dimension dim="2">spin</dimension>
     <field>energy</field>
     <field>total</field>
     <field>integrated</field>
     <set>
      <set comment="spin 1">
       <r>   -27.2170     0.0000     0.0000 </r>
       <r>   -27.1060     0.0000     0.0000 </r>
       <r>   -26.9951     0.0000     0.0000 </r>
       <r>   -26.8841     0.0000     0.0000 </r>
       <r>   -26.7731     0.0000     0.0000 </r>
       <r>   -26.6622     0.0000     0.0000 </r>
       <r>   -26.5512     0.0000     0.0000 </r>
       <r>   -26.4403     0.0000     0.0000 </r>
       <r>   -26.3293     0.0000     0.0000 </r>
       <r>   -26.2183     0.0000     0.0000 </r>
       <r>   -26.1074     0.0000     0.0000 </r>
       <r>   -25.9964     0.0000     0.0000 </r>
       <r>   -25.8854     0.0000     0.0000 </r>
       <r>   -25.7745     0.0007     0.0001 </r>
       <r>   -25.6635     0.0136     0.0016 </r>
       <r>   -25.5526     0.1447     0.0176 </r>
       <r>   -25.4416     0.8523     0.1122 </r>
       <r>   -25.3306     2.7880     0.4216 </r>
       <r>   -25.2197     5.0757     0.9848 </r>
       <r>   -25.1087     5.1484     1.5561 </r>
       <r>   -24.9978     2.9095     1.8789 </r>
       <r>   -24.8868     0.9152     1.9804 </r>
       <r>   -24.7758     0.1599     1.9982 </r>
       <r>   -24.6649     0.0155     1.9999 </r>
       <r>   -24.5539     0.0008     2.0000 </r>
       <r>   -24.4430     0.0000     2.0000 </r>
       <r>   -24.3320     0.0000     2.0000 </r>
       <r>   -24.2210     0.0000     2.0000 </r>
       <r>   -24.1101     0.0000     2.0000 </r>
       <r>   -23.9991     0.0000     2.0000 </r>
       <r>   -23.8881     0.0000     2.0000 </r>
       <r>   -23.7772     0.0000     2.0000 </r>
       <r>   -23.6662     0.0000     2.0000 </r>
       <r>   -23.5553     0.0000     2.0000 </r>
       <r>   -23.4443     0.0000     2.0000 </r>
       <r>   -23.3333     0.0000     2.0000 </r>
       <r>   -23.2224     0.0000     2.0000 </r>
       <r>   -23.1114     0.0000     2.0000 </r>
       <r>   -23.0005     0.0000     2.0000 </r>
       <r>   -22.8895     0.0000     2.0000 </r>
       <r>   -22.7785     0.0000     2.0000 </r>
       <r>   -22.6676     0.0000     2.0000 </r>
       <r>   -22.5566     0.0000     2.0000 </r>
       <r>   -22.4456     0.0000     2.0000 </r>
       <r>   -22.3347     0.0000     2.0000 </r>
       <r>   -22.2237     0.0000     2.0000 </r>
       <r>   -22.1128     0.0000     2.0000 </r>
       <r>   -22.0018     0.0000     2.0000 </r>
       <r>   -21.8908     0.0000     2.0000 </r>
       <r>   -21.7799     0.0000     2.0000 </r>
       <r>   -21.6689     0.0000     2.0000 </r>
       <r>   -21.5580     0.0000     2.0000 </r>
       <r>   -21.4470     0.0000     2.0000 </r>
       <r>   -21.3360     0.0000     2.0000 </r>
       <r>   -21.2251     0.0000     2.0000 </r>
       <r>   -21.1141     0.0000     2.0000 </r>
       <r>   -21.0032     0.0000     2.0000 </r>
       <r>   -20.8922     0.0000     2.0000 </r>
       <r>   -20.7812     0.0000     2.0000 </r>
       <r>   -20.6703     0.0000     2.0000 </r>
       <r>   -20.5593     0.0000     2.0000 </r>
       <r>   -20.4483     0.0000     2.0000 </r>
       <r>   -20.3374     0.0000     2.0000 </r>
       <r>   -20.2264     0.0000     2.0000 </r>
       <r>   -20.1155     0.0000     2.0000 </r>
       <r>   -20.0045     0.0000     2.0000 </r>
       <r>   -19.8935     0.0000     2.0000 </r>
       <r>   -19.7826     0.0000     2.0000 </r>
       <r>   -19.6716     0.0000     2.0000 </r>
       <r>   -19.5607     0.0000     2.0000 </r>
       <r>   -19.4497     0.0000     2.0000 </r>
       <r>   -19.3387     0.0000     2.0000 </r>
       <r>   -19.2278     0.0000     2.0000 </r>
       <r>   -19.1168     0.0000     2.0000 </r>
       <r>   -19.0058     0.0000     2.0000 </r>
       <r>   -18.8949     0.0000     2.0000 </r>
       <r>   -18.7839     0.0000     2.0000 </r>
       <r>   -18.6730     0.0000     2.0000 </r>
       <r>   -18.5620     0.0000     2.0000 </r>
       <r>   -18.4510     0.0000     2.0000 </r>
       <r>   -18.3401     0.0000     2.0000 </r>
       <r>   -18.2291     0.0000     2.0000 </r>
       <r>   -18.1182     0.0000     2.0000 </r>
       <r>   -18.0072     0.0000     2.0000 </r>
       <r>   -17.8962     0.0000     2.0000 </r>
       <r>   -17.7853     0.0000     2.0000 </r>
       <r>   -17.6743     0.0000     2.0000 </r>
       <r>   -17.5634     0.0000     2.0000 </r>
       <r>   -17.4524     0.0000     2.0000 </r>
       <r>   -17.3414     0.0000     2.0000 </r>
       <r>   -17.2305     0.0000     2.0000 </r>
       <r>   -17.1195     0.0000     2.0000 </r>
       <r>   -17.0085     0.0000     2.0000 </r>
       <r>   -16.8976     0.0000     2.0000 </r>
       <r>   -16.7866     0.0000     2.0000 </r>
       <r>   -16.6757     0.0000     2.0000 </r>
       <r>   -16.5647     0.0000     2.0000 </r>
       <r>   -16.4537     0.0000     2.0000 </r>
       <r>   -16.3428     0.0000     2.0000 </r>
       <r>   -16.2318     0.0000     2.0000 </r>
       <r>   -16.1209     0.0000     2.0000 </r>
       <r>   -16.0099     0.0000     2.0000 </r>
       <r>   -15.8989     0.0000     2.0000 </r>
       <r>   -15.7880     0.0000     2.0000 </r>
       <r>   -15.6770     0.0000     2.0000 </r>
       <r>   -15.5660     0.0000     2.0000 </r>
       <r>   -15.4551     0.0000     2.0000 </r>
       <r>   -15.3441     0.0000     2.0000 </r>
       <r>   -15.2332     0.0000     2.0000 </r>
       <r>   -15.1222     0.0000     2.0000 </r>
       <r>   -15.0112     0.0000     2.0000 </r>
       <r>   -14.9003     0.0000     2.0000 </r>
       <r>   -14.7893     0.0000     2.0000 </r>
       <r>   -14.6784     0.0000     2.0000 </r>
       <r>   -14.5674     0.0000     2.0000 </r>
       <r>   -14.4564     0.0000     2.0000 </r>
       <r>   -14.3455     0.0000     2.0000 </r>
       <r>   -14.2345     0.0000     2.0000 </r>
       <r>   -14.1236     0.0000     2.0000 </r>
       <r>   -14.0126     0.0000     2.0000 </r>
       <r>   -13.9016     0.0000     2.0000 </r>
       <r>   -13.7907     0.0000     2.0000 </r>
       <r>   -13.6797     0.0000     2.0000 </r>
       <r>   -13.5687     0.0001     2.0000 </r>
       <r>   -13.4578     0.0023     2.0003 </r>
       <r>   -13.3468     0.0349     2.0041 </r>
       <r>   -13.2359     0.2983     2.0372 </r>
       <r>   -13.1249     1.4137     2.1941 </r>
       <r>   -13.0139     3.7239     2.6073 </r>
       <r>   -12.9030     5.4620     3.2134 </r>
       <r>   -12.7920     4.4641     3.7087 </r>
       <r>   -12.6811     2.0323     3.9342 </r>
       <r>   -12.5701     0.5146     3.9913 </r>
       <r>   -12.4591     0.0723     3.9993 </r>
       <r>   -12.3482     0.0056     4.0000 </r>
       <r>   -12.2372     0.0002     4.0000 </r>
       <r>   -12.1262     0.0000     4.0000 </r>
       <r>   -12.0153     0.0000     4.0000 </r>
       <r>   -11.9043     0.0000     4.0000 </r>
       <r>   -11.7934     0.0000     4.0000 </r>
       <r>   -11.6824     0.0000     4.0000 </r>
       <r>   -11.5714     0.0000     4.0000 </r>
       <r>   -11.4605     0.0000     4.0000 </r>
       <r>   -11.3495     0.0000     4.0000 </r>
       <r>   -11.2386     0.0000     4.0000 </r>
       <r>   -11.1276     0.0000     4.0000 </r>
       <r>   -11.0166     0.0000     4.0000 </r>
       <r>   -10.9057     0.0000     4.0000 </r>
       <r>   -10.7947     0.0000     4.0000 </r>
       <r>   -10.6838     0.0000     4.0000 </r>
       <r>   -10.5728     0.0000     4.0000 </r>
       <r>   -10.4618     0.0000     4.0000 </r>
       <r>   -10.3509     0.0000     4.0000 </r>
       <r>   -10.2399     0.0000     4.0000 </r>
       <r>   -10.1289     0.0000     4.0000 </r>
       <r>   -10.0180     0.0000     4.0000 </r>
       <r>    -9.9070     0.0000     4.0000 </r>
       <r>    -9.7961     0.0000     4.0000 </r>
       <r>    -9.6851     0.0010     4.0001 </r>
       <r>    -9.5741     0.0182     4.0021 </r>
       <r>    -9.4632     0.1810     4.0222 </r>
       <r>    -9.3522     0.9990     4.1331 </r>
       <r>    -9.2413     3.0641     4.4731 </r>
       <r>    -9.1303     5.2310     5.0535 </r>
       <r>    -9.0193     4.9759     5.6056 </r>
       <r>    -8.9084     2.6370     5.8982 </r>
       <r>    -8.7974     0.7777     5.9845 </r>
       <r>    -8.6865     0.1274     5.9987 </r>
       <r>    -8.5755     0.0116     5.9999 </r>
       <r>    -8.4645     0.0006     6.0000 </r>
       <r>    -8.3536     0.0000     6.0000 </r>
       <r>    -8.2426     0.0000     6.0000 </r>
       <r>    -8.1316     0.0000     6.0000 </r>
       <r>    -8.0207     0.0000     6.0000 </r>
       <r>    -7.9097     0.0000     6.0000 </r>
       <r>    -7.7988     0.0000     6.0000 </r>
       <r>    -7.6878     0.0000     6.0000 </r>
       <r>    -7.5768     0.0013     6.0002 </r>
       <r>    -7.4659     0.0227     6.0027 </r>
       <r>    -7.3549     0.2149     6.0265 </r>
       <r>    -7.2440     1.1271     6.1516 </r>
       <r>    -7.1330     3.2852     6.5161 </r>
       <r>    -7.0220     5.3305     7.1076 </r>
       <r>    -6.9111     4.8194     7.6424 </r>
       <r>    -6.8001     2.4274     7.9117 </r>
       <r>    -6.6891     0.6803     7.9872 </r>
       <r>    -6.5782     0.1059     7.9989 </r>
       <r>    -6.4672     0.0091     8.0000 </r>
       <r>    -6.3563     0.0004     8.0000 </r>
       <r>    -6.2453     0.0000     8.0000 </r>
       <r>    -6.1343     0.0000     8.0000 </r>
       <r>    -6.0234     0.0000     8.0000 </r>
       <r>    -5.9124     0.0000     8.0000 </r>
       <r>    -5.8015     0.0000     8.0000 </r>
       <r>    -5.6905     0.0000     8.0000 </r>
       <r>    -5.5795     0.0000     8.0000 </r>
       <r>    -5.4686     0.0000     8.0000 </r>
       <r>    -5.3576     0.0000     8.0000 </r>
       <r>    -5.2467     0.0000     8.0000 </r>
       <r>    -5.1357     0.0000     8.0000 </r>
       <r>    -5.0247     0.0000     8.0000 </r>
       <r>    -4.9138     0.0000     8.0000 </r>
       <r>    -4.8028     0.0000     8.0000 </r>
       <r>    -4.6918     0.0000     8.0000 </r>
       <r>    -4.5809     0.0000     8.0000 </r>
       <r>    -4.4699     0.0000     8.0000 </r>
       <r>    -4.3590     0.0000     8.0000 </r>
       <r>    -4.2480     0.0000     8.0000 </r>
       <r>    -4.1370     0.0000     8.0000 </r>
       <r>    -4.0261     0.0000     8.0000 </r>
       <r>    -3.9151     0.0000     8.0000 </r>
       <r>    -3.8042     0.0000     8.0000 </r>
       <r>    -3.6932     0.0000     8.0000 </r>
       <r>    -3.5822     0.0000     8.0000 </r>
       <r>    -3.4713     0.0000     8.0000 </r>
       <r>    -3.3603     0.0000     8.0000 </r>
       <r>    -3.2493     0.0000     8.0000 </r>
       <r>    -3.1384     0.0000     8.0000 </r>
       <r>    -3.0274     0.0000     8.0000 </r>
       <r>    -2.9165     0.0000     8.0000 </r>
       <r>    -2.8055     0.0000     8.0000 </r>
       <r>    -2.6945     0.0000     8.0000 </r>
       <r>    -2.5836     0.0000     8.0000 </r>
       <r>    -2.4726     0.0000     8.0000 </r>
       <r>    -2.3617     0.0000     8.0000 </r>
       <r>    -2.2507     0.0000     8.0000 </r>
       <r>    -2.1397     0.0000     8.0000 </r>
       <r>    -2.0288     0.0000     8.0000 </r>
       <r>    -1.9178     0.0000     8.0000 </r>
       <r>    -1.8069     0.0000     8.0000 </r>
       <r>    -1.6959     0.0001     8.0000 </r>
       <r>    -1.5849     0.0020     8.0002 </r>
       <r>    -1.4740     0.0318     8.0038 </r>
       <r>    -1.3630     0.2778     8.0346 </r>
       <r>    -1.2520     1.3464     8.1840 </r>
       <r>    -1.1411     3.6272     8.5865 </r>
       <r>    -1.0301     5.4407     9.1902 </r>
       <r>    -0.9192     4.5474     9.6948 </r>
       <r>    -0.8082     2.1172     9.9297 </r>
       <r>    -0.6972     0.5483     9.9905 </r>
       <r>    -0.5863     0.0788     9.9993 </r>
       <r>    -0.4753     0.0063    10.0000 </r>
       <r>    -0.3644     0.0003    10.0000 </r>
       <r>    -0.2534     0.0000    10.0000 </r>
       <r>    -0.1424     0.0000    10.0000 </r>
       <r>    -0.0315     0.0000    10.0000 </r>
       <r>     0.0795     0.0000    10.0000 </r>
       <r>     0.1905     0.0000    10.0000 </r>
       <r>     0.3014     0.0000    10.0000 </r>
       <r>     0.4124     0.0000    10.0000 </r>
       <r>     0.5233     0.0001    10.0000 </r>
       <r>     0.6343     0.0033    10.0004 </r>
       <r>     0.7453     0.0487    10.0058 </r>
       <r>     0.8562     0.4045    10.0507 </r>
       <r>     0.9672     1.9307    10.2649 </r>
       <r>     1.0781     5.4224    10.8666 </r>
       <r>     1.1891     9.2099    11.8885 </r>
       <r>     1.3001     9.6722    12.9618 </r>
       <r>     1.4110     6.4846    13.6813 </r>
       <r>     1.5220     3.8939    14.1134 </r>
       <r>     1.6329     5.6271    14.7378 </r>
       <r>     1.7439    10.4708    15.8996 </r>
       <r>     1.8549    13.6345    17.4125 </r>
       <r>     1.9658    13.8914    18.9539 </r>
       <r>     2.0768    12.7003    20.3632 </r>
       <r>     2.1878     9.1045    21.3734 </r>
       <r>     2.2987     4.2505    21.8450 </r>
       <r>     2.4097     1.1863    21.9767 </r>
       <r>     2.5206     0.1922    21.9980 </r>
       <r>     2.6316     0.0291    22.0012 </r>
       <r>     2.7426     0.1275    22.0154 </r>
       <r>     2.8535     0.7745    22.1013 </r>
       <r>     2.9645     2.6303    22.3932 </r>
       <r>     3.0754     4.9712    22.9448 </r>
       <r>     3.1864     5.2348    23.5257 </r>
       <r>     3.2974     3.0787    23.8673 </r>
       <r>     3.4083     1.1085    23.9903 </r>
       <r>     3.5193     1.0092    24.1023 </r>
       <r>     3.6303     3.7737    24.5210 </r>
       <r>     3.7412    10.0419    25.6353 </r>
       <r>     3.8522    16.2431    27.4376 </r>
       <r>     3.9631    16.8802    29.3107 </r>
       <r>     4.0741    12.5993    30.7087 </r>
       <r>     4.1851     7.3830    31.5279 </r>
       <r>     4.2960     3.1990    31.8829 </r>
       <r>     4.4070     0.8940    31.9821 </r>
       <r>     4.5179     0.1471    31.9984 </r>
       <r>     4.6289     0.0137    31.9999 </r>
       <r>     4.7399     0.0007    32.0000 </r>
       <r>     4.8508     0.0000    32.0000 </r>
       <r>     4.9618     0.0000    32.0000 </r>
       <r>     5.0727     0.0000    32.0000 </r>
       <r>     5.1837     0.0000    32.0000 </r>
       <r>     5.2947     0.0000    32.0000 </r>
       <r>     5.4056     0.0000    32.0000 </r>
       <r>     5.5166     0.0000    32.0000 </r>
       <r>     5.6276     0.0000    32.0000 </r>
       <r>     5.7385     0.0000    32.0000 </r>
       <r>     5.8495     0.0000    32.0000 </r>
       <r>     5.9604     0.0000    32.0000 </r>
       <r>     6.0714     0.0000    32.0000 </r>
      </set>
     </set>
    </array>
   </total>
  </dos>
 </calculation>
 <structure name="finalpos" >
  <crystal>
   <varray name="basis" >
    <v>       7.93770000       0.00000000       0.00000000 </v>
    <v>       0.00000000       7.93770000       0.00000000 </v>
    <v>       0.00000000       0.00000000       7.93770000 </v>
   </varray>
   <i name="volume">    500.13130916 </i>
   <varray name="rec_basis" >
    <v>       0.12598108       0.00000000       0.00000000 </v>
    <v>       0.00000000       0.12598108       0.00000000 </v>
    <v>       0.00000000       0.00000000       0.12598108 </v>
   </varray>
  </crystal>
  <varray name="positions" >
   <v>       0.00000000       0.00000000       0.00000000 </v>
   <v>       0.07513045       0.90318071       0.00000000 </v>
   <v>       0.07513045       0.09429967       0.00000000 </v>
  </varray>
  <varray name="selective"  type="logical" >
   <v type="logical" >  T  T  F </v>
   <v type="logical" >  T  T  F </v>
   <v type="logical" >  T  T  F </v>
  </varray>
  <nose>
   <v>      -3.00000000       0.00000000       0.00010000       0.00010000 </v>
  </nose>
 </structure>
</modeling>
