   2   2   0   0
  0.2560000E+03  0.8000000E-09  0.8000000E-09  0.8000000E-09  0.5000000E-15
  1.000000000000000E-004
  CAR 
 CO dimer in a box                       
      6.05419347    -30.93775012  301     -7.75516881      1.00000000
    -30.938  0.0000E+00  0.0000E+00
    -30.814  0.0000E+00  0.0000E+00
    -30.691  0.0000E+00  0.0000E+00
    -30.568  0.0000E+00  0.0000E+00
    -30.445  0.0000E+00  0.0000E+00
    -30.321  0.0000E+00  0.0000E+00
    -30.198  0.0000E+00  0.0000E+00
    -30.075  0.1441E-14  0.1776E-15
    -29.951  0.1243E-11  0.1535E-12
    -29.828  0.4975E-09  0.6150E-10
    -29.705  0.9453E-07  0.1172E-07
    -29.581  0.8559E-05  0.1067E-05
    -29.458  0.3708E-03  0.4679E-04
    -29.335  0.7723E-02  0.9991E-03
    -29.211  0.7776E-01  0.1059E-01
    -29.088  0.3805E+00  0.5751E-01
    -28.965  0.9091E+00  0.1696E+00
    -28.842  0.1063E+01  0.3007E+00
    -28.718  0.6094E+00  0.3759E+00
    -28.595  0.1707E+00  0.3969E+00
    -28.472  0.2330E-01  0.3998E+00
    -28.348  0.1541E-02  0.4000E+00
    -28.225  0.4910E-04  0.4000E+00
    -28.102  0.7502E-06  0.4000E+00
    -27.978  0.5471E-08  0.4000E+00
    -27.855  0.1897E-10  0.4000E+00
    -27.732  0.3097E-13  0.4000E+00
    -27.608  0.0000E+00  0.4000E+00
    -27.485  0.0000E+00  0.4000E+00
    -27.362  0.0000E+00  0.4000E+00
    -27.239  0.0000E+00  0.4000E+00
    -27.115  0.0000E+00  0.4000E+00
    -26.992  0.0000E+00  0.4000E+00
    -26.869  0.0000E+00  0.4000E+00
    -26.745  0.0000E+00  0.4000E+00
    -26.622  0.0000E+00  0.4000E+00
    -26.499  0.0000E+00  0.4000E+00
    -26.375  0.0000E+00  0.4000E+00
    -26.252  0.0000E+00  0.4000E+00
    -26.129  0.0000E+00  0.4000E+00
    -26.005  0.0000E+00  0.4000E+00
    -25.882  0.0000E+00  0.4000E+00
    -25.759  0.0000E+00  0.4000E+00
    -25.636  0.0000E+00  0.4000E+00
    -25.512  0.0000E+00  0.4000E+00
    -25.389  0.0000E+00  0.4000E+00
    -25.266  0.0000E+00  0.4000E+00
    -25.142  0.0000E+00  0.4000E+00
    -25.019  0.0000E+00  0.4000E+00
    -24.896  0.0000E+00  0.4000E+00
    -24.772  0.0000E+00  0.4000E+00
    -24.649  0.0000E+00  0.4000E+00
    -24.526  0.0000E+00  0.4000E+00
    -24.403  0.0000E+00  0.4000E+00
    -24.279  0.0000E+00  0.4000E+00
    -24.156  0.0000E+00  0.4000E+00
    -24.033  0.0000E+00  0.4000E+00
    -23.909  0.0000E+00  0.4000E+00
    -23.786  0.0000E+00  0.4000E+00
    -23.663  0.0000E+00  0.4000E+00
    -23.539  0.0000E+00  0.4000E+00
    -23.416  0.0000E+00  0.4000E+00
    -23.293  0.0000E+00  0.4000E+00
    -23.169  0.0000E+00  0.4000E+00
    -23.046  0.0000E+00  0.4000E+00
    -22.923  0.0000E+00  0.4000E+00
    -22.800  0.0000E+00  0.4000E+00
    -22.676  0.0000E+00  0.4000E+00
    -22.553  0.0000E+00  0.4000E+00
    -22.430  0.0000E+00  0.4000E+00
    -22.306  0.0000E+00  0.4000E+00
    -22.183  0.0000E+00  0.4000E+00
    -22.060  0.0000E+00  0.4000E+00
    -21.936  0.0000E+00  0.4000E+00
    -21.813  0.0000E+00  0.4000E+00
    -21.690  0.0000E+00  0.4000E+00
    -21.566  0.0000E+00  0.4000E+00
    -21.443  0.0000E+00  0.4000E+00
    -21.320  0.0000E+00  0.4000E+00
    -21.197  0.0000E+00  0.4000E+00
    -21.073  0.0000E+00  0.4000E+00
    -20.950  0.0000E+00  0.4000E+00
    -20.827  0.0000E+00  0.4000E+00
    -20.703  0.0000E+00  0.4000E+00
    -20.580  0.0000E+00  0.4000E+00
    -20.457  0.0000E+00  0.4000E+00
    -20.333  0.0000E+00  0.4000E+00
    -20.210  0.0000E+00  0.4000E+00
    -20.087  0.0000E+00  0.4000E+00
    -19.963  0.0000E+00  0.4000E+00
    -19.840  0.0000E+00  0.4000E+00
    -19.717  0.0000E+00  0.4000E+00
    -19.594  0.0000E+00  0.4000E+00
    -19.470  0.0000E+00  0.4000E+00
    -19.347  0.0000E+00  0.4000E+00
    -19.224  0.0000E+00  0.4000E+00
    -19.100  0.0000E+00  0.4000E+00
    -18.977  0.0000E+00  0.4000E+00
    -18.854  0.0000E+00  0.4000E+00
    -18.730  0.0000E+00  0.4000E+00
    -18.607  0.0000E+00  0.4000E+00
    -18.484  0.0000E+00  0.4000E+00
    -18.360  0.0000E+00  0.4000E+00
    -18.237  0.0000E+00  0.4000E+00
    -18.114  0.0000E+00  0.4000E+00
    -17.991  0.0000E+00  0.4000E+00
    -17.867  0.0000E+00  0.4000E+00
    -17.744  0.0000E+00  0.4000E+00
    -17.621  0.0000E+00  0.4000E+00
    -17.497  0.0000E+00  0.4000E+00
    -17.374  0.0000E+00  0.4000E+00
    -17.251  0.0000E+00  0.4000E+00
    -17.127  0.0000E+00  0.4000E+00
    -17.004  0.0000E+00  0.4000E+00
    -16.881  0.0000E+00  0.4000E+00
    -16.758  0.0000E+00  0.4000E+00
    -16.634  0.0000E+00  0.4000E+00
    -16.511  0.0000E+00  0.4000E+00
    -16.388  0.0000E+00  0.4000E+00
    -16.264  0.0000E+00  0.4000E+00
    -16.141  0.0000E+00  0.4000E+00
    -16.018  0.0000E+00  0.4000E+00
    -15.894  0.0000E+00  0.4000E+00
    -15.771  0.0000E+00  0.4000E+00
    -15.648  0.0000E+00  0.4000E+00
    -15.524  0.0000E+00  0.4000E+00
    -15.401  0.0000E+00  0.4000E+00
    -15.278  0.0000E+00  0.4000E+00
    -15.155  0.0000E+00  0.4000E+00
    -15.031  0.0000E+00  0.4000E+00
    -14.908  0.9004E-15  0.4000E+00
    -14.785  0.8253E-12  0.4000E+00
    -14.661  0.3464E-09  0.4000E+00
    -14.538  0.6904E-07  0.4000E+00
    -14.415  0.6555E-05  0.4000E+00
    -14.291  0.2977E-03  0.4000E+00
    -14.168  0.6497E-02  0.4008E+00
    -14.045  0.6853E-01  0.4093E+00
    -13.921  0.3512E+00  0.4526E+00
    -13.798  0.8784E+00  0.5609E+00
    -13.675  0.1076E+01  0.6935E+00
    -13.552  0.6452E+00  0.7731E+00
    -13.428  0.1893E+00  0.7964E+00
    -13.305  0.2705E-01  0.7998E+00
    -13.182  0.1874E-02  0.8000E+00
    -13.058  0.6260E-04  0.8000E+00
    -12.935  0.1003E-05  0.8000E+00
    -12.812  0.7670E-08  0.8000E+00
    -12.688  0.2790E-10  0.8000E+00
    -12.565  0.5258E-13  0.8000E+00
    -12.442  0.3460E-11  0.8000E+00
    -12.318  0.1332E-08  0.8000E+00
    -12.195  0.2435E-06  0.8000E+00
    -12.072  0.2121E-04  0.8000E+00
    -11.949  0.8844E-03  0.8001E+00
    -11.825  0.1774E-01  0.8023E+00
    -11.702  0.1720E+00  0.8235E+00
    -11.579  0.8106E+00  0.9235E+00
    -11.455  0.1866E+01  0.1154E+01
    -11.332  0.2103E+01  0.1413E+01
    -11.209  0.1161E+01  0.1556E+01
    -11.085  0.3134E+00  0.1595E+01
    -10.962  0.4118E-01  0.1600E+01
    -10.839  0.2622E-02  0.1600E+01
    -10.715  0.8043E-04  0.1600E+01
    -10.592  0.1183E-05  0.1600E+01
    -10.469  0.8297E-08  0.1600E+01
    -10.346  0.2768E-10  0.1600E+01
    -10.222  0.4394E-13  0.1600E+01
    -10.099  0.0000E+00  0.1600E+01
     -9.976  0.0000E+00  0.1600E+01
     -9.852  0.3061E-13  0.1600E+01
     -9.729  0.1866E-10  0.1600E+01
     -9.606  0.5393E-08  0.1600E+01
     -9.482  0.7410E-06  0.1600E+01
     -9.359  0.4859E-04  0.1600E+01
     -9.236  0.1528E-02  0.1600E+01
     -9.113  0.2315E-01  0.1603E+01
     -8.989  0.1700E+00  0.1624E+01
     -8.866  0.6079E+00  0.1699E+01
     -8.743  0.1063E+01  0.1830E+01
     -8.619  0.9104E+00  0.1942E+01
     -8.496  0.3818E+00  0.1989E+01
     -8.373  0.7817E-01  0.1999E+01
     -8.249  0.7779E-02  0.2000E+01
     -8.126  0.3742E-03  0.2000E+01
     -8.003  0.8655E-05  0.2000E+01
     -7.879  0.9579E-07  0.2000E+01
     -7.756  0.5051E-09  0.2000E+01
     -7.633  0.1265E-11  0.2000E+01
     -7.510  0.1441E-14  0.2000E+01
     -7.386  0.0000E+00  0.2000E+01
     -7.263  0.0000E+00  0.2000E+01
     -7.140  0.0000E+00  0.2000E+01
     -7.016  0.0000E+00  0.2000E+01
     -6.893  0.0000E+00  0.2000E+01
     -6.770  0.0000E+00  0.2000E+01
     -6.646  0.0000E+00  0.2000E+01
     -6.523  0.0000E+00  0.2000E+01
     -6.400  0.0000E+00  0.2000E+01
     -6.276  0.0000E+00  0.2000E+01
     -6.153  0.0000E+00  0.2000E+01
     -6.030  0.0000E+00  0.2000E+01
     -5.907  0.0000E+00  0.2000E+01
     -5.783  0.0000E+00  0.2000E+01
     -5.660  0.0000E+00  0.2000E+01
     -5.537  0.0000E+00  0.2000E+01
     -5.413  0.0000E+00  0.2000E+01
     -5.290  0.0000E+00  0.2000E+01
     -5.167  0.0000E+00  0.2000E+01
     -5.043  0.0000E+00  0.2000E+01
     -4.920  0.0000E+00  0.2000E+01
     -4.797  0.0000E+00  0.2000E+01
     -4.673  0.0000E+00  0.2000E+01
     -4.550  0.0000E+00  0.2000E+01
     -4.427  0.0000E+00  0.2000E+01
     -4.304  0.0000E+00  0.2000E+01
     -4.180  0.0000E+00  0.2000E+01
     -4.057  0.0000E+00  0.2000E+01
     -3.934  0.0000E+00  0.2000E+01
     -3.810  0.0000E+00  0.2000E+01
     -3.687  0.0000E+00  0.2000E+01
     -3.564  0.0000E+00  0.2000E+01
     -3.440  0.0000E+00  0.2000E+01
     -3.317  0.0000E+00  0.2000E+01
     -3.194  0.0000E+00  0.2000E+01
     -3.070  0.0000E+00  0.2000E+01
     -2.947  0.1178E-12  0.2000E+01
     -2.824  0.6672E-10  0.2000E+01
     -2.701  0.1794E-07  0.2000E+01
     -2.577  0.2294E-05  0.2000E+01
     -2.454  0.1401E-03  0.2000E+01
     -2.331  0.4103E-02  0.2001E+01
     -2.207  0.5795E-01  0.2008E+01
     -2.084  0.3968E+00  0.2057E+01
     -1.961  0.1324E+01  0.2220E+01
     -1.837  0.2160E+01  0.2486E+01
     -1.714  0.1727E+01  0.2699E+01
     -1.591  0.6759E+00  0.2783E+01
     -1.468  0.1291E+00  0.2798E+01
     -1.344  0.1198E-01  0.2800E+01
     -1.221  0.5368E-03  0.2800E+01
     -1.098  0.1162E-04  0.2800E+01
     -0.974  0.5194E-05  0.2800E+01
     -0.851  0.2410E-03  0.2800E+01
     -0.728  0.5499E-02  0.2801E+01
     -0.604  0.6062E-01  0.2808E+01
     -0.481  0.3245E+00  0.2848E+01
     -0.358  0.8479E+00  0.2953E+01
     -0.234  0.1084E+01  0.3086E+01
     -0.111  0.6793E+00  0.3170E+01
      0.012  0.2082E+00  0.3196E+01
      0.135  0.3109E-01  0.3200E+01
      0.259  0.2251E-02  0.3200E+01
      0.382  0.7862E-04  0.3200E+01
      0.505  0.1317E-05  0.3200E+01
      0.629  0.1054E-07  0.3200E+01
      0.752  0.1082E-09  0.3200E+01
      0.875  0.1679E-07  0.3200E+01
      0.999  0.1977E-05  0.3200E+01
      1.122  0.1122E-03  0.3200E+01
      1.245  0.3117E-02  0.3200E+01
      1.369  0.4359E-01  0.3206E+01
      1.492  0.3223E+00  0.3246E+01
      1.615  0.1345E+01  0.3411E+01
      1.738  0.3332E+01  0.3822E+01
      1.862  0.4882E+01  0.4424E+01
      1.985  0.4038E+01  0.4922E+01
      2.108  0.1835E+01  0.5148E+01
      2.232  0.6739E+00  0.5231E+01
      2.355  0.8111E+00  0.5331E+01
      2.478  0.1097E+01  0.5467E+01
      2.602  0.7688E+00  0.5561E+01
      2.725  0.2644E+00  0.5594E+01
      2.848  0.4435E-01  0.5600E+01
      2.972  0.3612E-02  0.5600E+01
      3.095  0.2488E-03  0.5600E+01
      3.218  0.2883E-02  0.5600E+01
      3.341  0.3744E-01  0.5605E+01
      3.465  0.2361E+00  0.5634E+01
      3.588  0.7273E+00  0.5724E+01
      3.711  0.1115E+01  0.5861E+01
      3.835  0.9751E+00  0.5981E+01
      3.958  0.8995E+00  0.6092E+01
      4.081  0.1114E+01  0.6230E+01
      4.205  0.9135E+00  0.6342E+01
      4.328  0.3807E+00  0.6389E+01
      4.451  0.7777E-01  0.6399E+01
      4.575  0.7723E-02  0.6400E+01
      4.698  0.3708E-03  0.6400E+01
      4.821  0.8559E-05  0.6400E+01
      4.944  0.9453E-07  0.6400E+01
      5.068  0.4975E-09  0.6400E+01
      5.191  0.1243E-11  0.6400E+01
      5.314  0.1441E-14  0.6400E+01
      5.438  0.0000E+00  0.6400E+01
      5.561  0.0000E+00  0.6400E+01
      5.684  0.0000E+00  0.6400E+01
      5.808  0.0000E+00  0.6400E+01
      5.931  0.0000E+00  0.6400E+01
      6.054  0.0000E+00  0.6400E+01
