    2    2    5    1
  0.2560000E+03  0.8000000E-09  0.8000000E-09  0.8000000E-09  0.5000000E-15
  1.000000000000000E-004
  CAR 
 CO dimer in a box                       
     10      1     16
 
  0.0000000E+00  0.0000000E+00  0.0000000E+00  0.1000000E+01
    1      -28.937750   1.000000
    2      -13.763145   1.000000
    3      -11.434653   1.000000
    4      -11.434653   1.000000
    5       -8.769346   1.000000
    6       -1.876112   0.000000
    7       -1.876112   0.000000
    8       -0.315235   0.000000
    9        1.684958   0.000000
   10        1.821450   0.000000
   11        1.821450   0.000000
   12        1.848538   0.000000
   13        1.896068   0.000000
   14        2.417382   0.000000
   15        3.658600   0.000000
   16        4.054193   0.000000
