       N       E                     dE             d eps       ncg     rms          rms(c)
DAV:   1     0.596148650278E+02    0.59615E+02   -0.22001E+03    32   0.290E+02
DAV:   2    -0.114196445917E+02   -0.71035E+02   -0.71035E+02    48   0.866E+01
DAV:   3    -0.156375548901E+02   -0.42179E+01   -0.42179E+01    48   0.300E+01
DAV:   4    -0.156472558653E+02   -0.97010E-02   -0.97010E-02    32   0.169E+00
DAV:   5    -0.156473209902E+02   -0.65125E-04   -0.65125E-04    64   0.123E-01    0.639E+00
DAV:   6    -0.149360323360E+02    0.71129E+00   -0.32940E+00    32   0.748E+00    0.321E+00
DAV:   7    -0.147968861361E+02    0.13915E+00   -0.57448E-01    64   0.274E+00    0.160E+00
DAV:   8    -0.147599389302E+02    0.36947E-01   -0.13131E-01    64   0.162E+00    0.403E-01
DAV:   9    -0.147589134839E+02    0.10254E-02   -0.49764E-03    64   0.344E-01    0.642E-02
DAV:  10    -0.147600435508E+02   -0.11301E-02   -0.47844E-04    32   0.870E-02    0.361E-02
DAV:  11    -0.147624309182E+02   -0.23874E-02   -0.53633E-04    32   0.657E-02    0.145E-02
DAV:  12    -0.147633385301E+02   -0.90761E-03   -0.95151E-05    64   0.303E-02    0.846E-03
DAV:  13    -0.147638619721E+02   -0.52344E-03   -0.88578E-05    32   0.227E-02    0.321E-03
DAV:  14    -0.147640488642E+02   -0.18689E-03   -0.26123E-05    32   0.121E-02    0.158E-03
DAV:  15    -0.147640639793E+02   -0.15115E-04   -0.88213E-07    32   0.311E-03
   1 F= -.14764064E+02 E0= -.14764064E+02  d E =-.147641E+02
       N       E                     dE             d eps       ncg     rms          rms(c)
DAV:   1    -0.129569054910E+02    0.18071E+01   -0.19441E+02    32   0.797E+01    0.406E+00
DAV:   2    -0.127374096999E+02    0.21950E+00   -0.39868E+00    48   0.874E+00    0.251E+00
DAV:   3    -0.126867338007E+02    0.50676E-01   -0.10050E+00    64   0.346E+00    0.138E+00
DAV:   4    -0.126533631360E+02    0.33371E-01   -0.25700E-01    48   0.159E+00    0.417E-01
DAV:   5    -0.126570340782E+02   -0.36709E-02   -0.70965E-03    32   0.463E-01    0.139E-01
DAV:   6    -0.126586349849E+02   -0.16009E-02   -0.14260E-03    32   0.153E-01    0.299E-02
DAV:   7    -0.126595679022E+02   -0.93292E-03   -0.23413E-04    32   0.520E-02    0.197E-02
DAV:   8    -0.126606609823E+02   -0.10931E-02   -0.31492E-04    32   0.589E-02    0.148E-02
DAV:   9    -0.126609576384E+02   -0.29666E-03   -0.95241E-05    32   0.357E-02    0.121E-02
DAV:  10    -0.126609922511E+02   -0.34613E-04   -0.98636E-06    32   0.126E-02
   2 F= -.12660992E+02 E0= -.12660992E+02  d E =0.210307E+01
       N       E                     dE             d eps       ncg     rms          rms(c)
DAV:   1    -0.148392082294E+02   -0.21783E+01   -0.12249E+02    32   0.631E+01    0.276E+00
DAV:   2    -0.148173248411E+02    0.21883E-01   -0.21165E+00    48   0.800E+00    0.195E+00
DAV:   3    -0.147587214963E+02    0.58603E-01   -0.22212E-01    48   0.204E+00    0.857E-01
DAV:   4    -0.147433333484E+02    0.15388E-01   -0.98897E-02    32   0.140E+00    0.241E-01
DAV:   5    -0.147434426784E+02   -0.10933E-03   -0.58297E-03    32   0.357E-01    0.132E-01
DAV:   6    -0.147447770032E+02   -0.13343E-02   -0.61063E-04    64   0.134E-01    0.263E-02
DAV:   7    -0.147459694079E+02   -0.11924E-02   -0.16373E-04    48   0.418E-02    0.154E-02
DAV:   8    -0.147474055933E+02   -0.14362E-02   -0.34053E-04    32   0.453E-02    0.746E-03
DAV:   9    -0.147478407982E+02   -0.43520E-03   -0.66505E-05    32   0.208E-02    0.269E-03
DAV:  10    -0.147478859811E+02   -0.45183E-04   -0.25576E-06    32   0.477E-03
   3 F= -.14747886E+02 E0= -.14747886E+02  d E =0.161780E-01
       N       E                     dE             d eps       ncg     rms          rms(c)
DAV:   1    -0.148001689064E+02   -0.52328E-01   -0.20406E+00    32   0.846E+00    0.424E-01
DAV:   2    -0.147984938993E+02    0.16750E-02   -0.38219E-02    48   0.103E+00    0.271E-01
DAV:   3    -0.147969215706E+02    0.15723E-02   -0.63157E-03    48   0.403E-01    0.875E-02
DAV:   4    -0.147968257962E+02    0.95774E-04   -0.80259E-04    32   0.114E-01
   4 F= -.14796826E+02 E0= -.14796826E+02  d E =-.327618E-01
