<?xml version="1.0" encoding="ISO-8859-1"?>
<modeling>
 <generator>
  <i name="program" type="string">vasp </i>
  <i name="version" type="string">5.4.1  </i>
  <i name="subversion" type="string">24Jun15 (build Apr 04 2016 10:44:54) complex                          parallel </i>
  <i name="platform" type="string">Titan </i>
  <i name="date" type="string">2018 12 04 </i>
  <i name="time" type="string">13:33:22 </i>
 </generator>
 <incar>
  <i type="string" name="SYSTEM"> CO dimer in a box</i>
  <i type="string" name="PREC">normal</i>
  <i type="int" name="IBRION">     2</i>
  <i type="int" name="NSW">     5</i>
  <i type="int" name="ISMEAR">     0</i>
  <v type="int" name="KPOINT_BSE">    -1     0     0     0</v>
 </incar>
 <kpoints>
  <varray name="kpointlist" >
   <v>       0.00000000       0.00000000       0.00000000 </v>
  </varray>
  <varray name="weights" >
   <v>       1.00000000 </v>
  </varray>
 </kpoints>
 <parameters>
  <separator name="general" >
   <i type="string" name="SYSTEM">CO dimer in a box</i>
   <i type="logical" name="LCOMPAT"> F  </i>
  </separator>
  <separator name="electronic" >
   <i type="string" name="PREC">normal</i>
   <i name="ENMAX">    400.00000000</i>
   <i name="ENAUG">    644.87300000</i>
   <i name="EDIFF">      0.00010000</i>
   <i type="int" name="IALGO">    38</i>
   <i type="int" name="IWAVPR">    11</i>
   <i type="int" name="NBANDS">    16</i>
   <i name="NELECT">     10.00000000</i>
   <i type="int" name="TURBO">     0</i>
   <i type="int" name="IRESTART">     0</i>
   <i type="int" name="NREBOOT">     0</i>
   <i type="int" name="NMIN">     0</i>
   <i name="EREF">      0.00000000</i>
   <separator name="electronic smearing" >
    <i type="int" name="ISMEAR">     0</i>
    <i name="SIGMA">      0.20000000</i>
    <i name="KSPACING">      0.50000000</i>
    <i type="logical" name="KGAMMA"> T  </i>
   </separator>
   <separator name="electronic projectors" >
    <i type="logical" name="LREAL"> F  </i>
    <v name="ROPT">      0.00000000      0.00000000</v>
    <i type="int" name="LMAXPAW">  -100</i>
    <i type="int" name="LMAXMIX">     2</i>
    <i type="logical" name="NLSPLINE"> F  </i>
   </separator>
   <separator name="electronic startup" >
    <i type="int" name="ISTART">     0</i>
    <i type="int" name="ICHARG">     2</i>
    <i type="int" name="INIWAV">     1</i>
   </separator>
   <separator name="electronic spin" >
    <i type="int" name="ISPIN">     1</i>
    <i type="logical" name="LNONCOLLINEAR"> F  </i>
    <v name="MAGMOM">      1.00000000      1.00000000</v>
    <i name="NUPDOWN">     -1.00000000</i>
    <i type="logical" name="LSORBIT"> F  </i>
    <v name="SAXIS">      0.00000000      0.00000000      1.00000000</v>
    <i type="logical" name="LSPIRAL"> F  </i>
    <v name="QSPIRAL">      0.00000000      0.00000000      0.00000000</v>
    <i type="logical" name="LZEROZ"> F  </i>
   </separator>
   <separator name="electronic exchange-correlation" >
    <i type="logical" name="LASPH"> F  </i>
    <i type="logical" name="LMETAGGA"> F  </i>
   </separator>
   <separator name="electronic convergence" >
    <i type="int" name="NELM">    60</i>
    <i type="int" name="NELMDL">    -5</i>
    <i type="int" name="NELMIN">     2</i>
    <i name="ENINI">    400.00000000</i>
    <separator name="electronic convergence detail" >
     <i type="logical" name="LDIAG"> T  </i>
     <i type="logical" name="LSUBROT"> F  </i>
     <i name="WEIMIN">      0.00100000</i>
     <i name="EBREAK">      0.00000156</i>
     <i name="DEPER">      0.30000000</i>
     <i type="int" name="NRMM">     4</i>
     <i name="TIME">      0.40000000</i>
    </separator>
   </separator>
   <separator name="electronic mixer" >
    <i name="AMIX">      0.40000000</i>
    <i name="BMIX">      1.00000000</i>
    <i name="AMIN">      0.10000000</i>
    <i name="AMIX_MAG">      1.60000000</i>
    <i name="BMIX_MAG">      1.00000000</i>
    <separator name="electronic mixer details" >
     <i type="int" name="IMIX">     4</i>
     <i type="logical" name="MIXFIRST"> F  </i>
     <i type="int" name="MAXMIX">   -45</i>
     <i name="WC">    100.00000000</i>
     <i type="int" name="INIMIX">     1</i>
     <i type="int" name="MIXPRE">     1</i>
     <i type="int" name="MREMOVE">     5</i>
    </separator>
   </separator>
   <separator name="electronic dipolcorrection" >
    <i type="logical" name="LDIPOL"> F  </i>
    <i type="logical" name="LMONO"> F  </i>
    <i type="int" name="IDIPOL">     0</i>
    <i name="EPSILON">      1.00000000</i>
    <v name="DIPOL">   -100.00000000   -100.00000000   -100.00000000</v>
    <i name="EFIELD">      0.00000000</i>
   </separator>
  </separator>
  <separator name="grids" >
   <i type="int" name="NGX">    40</i>
   <i type="int" name="NGY">    40</i>
   <i type="int" name="NGZ">    40</i>
   <i type="int" name="NGXF">    80</i>
   <i type="int" name="NGYF">    80</i>
   <i type="int" name="NGZF">    80</i>
   <i type="logical" name="ADDGRID"> F  </i>
  </separator>
  <separator name="ionic" >
   <i type="int" name="NSW">     5</i>
   <i type="int" name="IBRION">     2</i>
   <i type="int" name="ISIF">     2</i>
   <i name="PSTRESS">      0.00000000</i>
   <i name="EDIFFG">      0.00100000</i>
   <i type="int" name="NFREE">     1</i>
   <i name="POTIM">      0.50000000</i>
   <i name="SMASS">     -3.00000000</i>
   <i name="SCALEE">      1.00000000</i>
  </separator>
  <separator name="ionic md" >
   <i name="TEBEG">      0.00010000</i>
   <i name="TEEND">      0.00010000</i>
   <i type="int" name="NBLOCK">     1</i>
   <i type="int" name="KBLOCK">     5</i>
   <i type="int" name="NPACO">   256</i>
   <i name="APACO">     16.00000000</i>
  </separator>
  <separator name="symmetry" >
   <i type="int" name="ISYM">     2</i>
   <i name="SYMPREC">      0.00001000</i>
  </separator>
  <separator name="dos" >
   <i type="logical" name="LORBIT"> F  </i>
   <v name="RWIGS">     -1.00000000     -1.00000000</v>
   <i type="int" name="NEDOS">   301</i>
   <i name="EMIN">     10.00000000</i>
   <i name="EMAX">    -10.00000000</i>
   <i name="EFERMI">      0.00000000</i>
  </separator>
  <separator name="writing" >
   <i type="int" name="NWRITE">     2</i>
   <i type="logical" name="LWAVE"> T  </i>
   <i type="logical" name="LCHARG"> T  </i>
   <i type="logical" name="LPARD"> F  </i>
   <i type="logical" name="LVTOT"> F  </i>
   <i type="logical" name="LVHAR"> F  </i>
   <i type="logical" name="LELF"> F  </i>
   <i type="logical" name="LOPTICS"> F  </i>
   <v name="STM">      0.00000000      0.00000000      0.00000000      0.00000000      0.00000000      0.00000000      0.00000000</v>
  </separator>
  <separator name="performance" >
   <i type="int" name="NPAR">    16</i>
   <i type="int" name="NSIM">     4</i>
   <i type="int" name="NBLK">    -1</i>
   <i type="logical" name="LPLANE"> T  </i>
   <i type="logical" name="LSCALAPACK"> T  </i>
   <i type="logical" name="LSCAAWARE"> F  </i>
   <i type="logical" name="LSCALU"> F  </i>
   <i type="logical" name="LASYNC"> F  </i>
   <i type="logical" name="LORBITALREAL"> F  </i>
  </separator>
  <separator name="miscellaneous" >
   <i type="int" name="IDIOT">     3</i>
   <i type="logical" name="LMUSIC"> F  </i>
   <v name="POMASS">     16.00000000     12.01100000</v>
   <v name="DARWINR">      0.00000000      0.00000000</v>
   <v name="DARWINV">      1.00000000      1.00000000</v>
   <i type="logical" name="LCORR"> T  </i>
  </separator>
  <i type="logical" name="GGA_COMPAT"> T  </i>
  <i type="logical" name="LBERRY"> F  </i>
  <i type="int" name="ICORELEVEL">     0</i>
  <i type="logical" name="LDAU"> F  </i>
  <i type="int" name="I_CONSTRAINED_M">     0</i>
  <separator name="electronic exchange-correlation" >
   <i type="string" name="GGA">--</i>
   <i type="int" name="VOSKOWN">     0</i>
   <i type="logical" name="LHFCALC"> F  </i>
   <i type="string" name="PRECFOCK"></i>
   <i type="logical" name="LSYMGRAD"> F  </i>
   <i type="logical" name="LHFONE"> F  </i>
   <i type="logical" name="LRHFCALC"> F  </i>
   <i type="logical" name="LTHOMAS"> F  </i>
   <i type="logical" name="LMODELHF"> F  </i>
   <i name="ENCUT4O">     -1.00000000</i>
   <i type="int" name="EXXOEP">     0</i>
   <i type="int" name="FOURORBIT">     0</i>
   <i name="AEXX">      0.00000000</i>
   <i name="HFALPHA">      0.00000000</i>
   <i name="MCALPHA">      0.00000000</i>
   <i name="ALDAX">      1.00000000</i>
   <i name="AGGAX">      1.00000000</i>
   <i name="ALDAC">      1.00000000</i>
   <i name="AGGAC">      1.00000000</i>
   <i type="int" name="NKREDX">     1</i>
   <i type="int" name="NKREDY">     1</i>
   <i type="int" name="NKREDZ">     1</i>
   <i type="logical" name="SHIFTRED"> F  </i>
   <i type="logical" name="ODDONLY"> F  </i>
   <i type="logical" name="EVENONLY"> F  </i>
   <i type="int" name="LMAXFOCK">     0</i>
   <i type="int" name="NMAXFOCKAE">     0</i>
   <i type="logical" name="LFOCKAEDFT"> F  </i>
   <i name="HFSCREEN">      0.00000000</i>
   <i name="HFSCREENC">      0.00000000</i>
   <i type="int" name="NBANDSGWLOW">     0</i>
  </separator>
  <separator name="vdW DFT" >
   <i type="logical" name="LUSE_VDW"> F  </i>
   <i name="Zab_VDW">     -0.84910000</i>
   <i name="PARAM1">      0.12340000</i>
   <i name="PARAM2">      1.00000000</i>
   <i name="PARAM3">      0.00000000</i>
  </separator>
  <separator name="model GW" >
   <i type="int" name="MODEL_GW">     0</i>
   <i name="MODEL_EPS0">    153.60000000</i>
   <i name="MODEL_ALPHA">      1.00000000</i>
  </separator>
  <separator name="linear response parameters" >
   <i type="logical" name="LEPSILON"> F  </i>
   <i type="logical" name="LRPA"> F  </i>
   <i type="logical" name="LNABLA"> F  </i>
   <i type="logical" name="LVEL"> F  </i>
   <i type="int" name="KINTER">     0</i>
   <i name="CSHIFT">      0.10000000</i>
   <i name="OMEGAMAX">     -1.00000000</i>
   <i name="DEG_THRESHOLD">      0.00200000</i>
  </separator>
  <separator name="orbital magnetization" >
   <i type="logical" name="NUCIND"> F  </i>
   <v name="MAGPOS">      0.00000000      0.00000000      0.00000000</v>
   <i type="logical" name="LNICSALL"> T  </i>
   <i type="logical" name="ORBITALMAG"> F  </i>
   <i type="logical" name="LMAGBLOCH"> F  </i>
   <i type="logical" name="LCHIMAG"> F  </i>
   <i type="logical" name="LGAUGE"> T  </i>
   <i type="int" name="MAGATOM">     0</i>
   <v name="MAGDIPOL">      0.00000000      0.00000000      0.00000000</v>
   <v name="AVECCONST">      0.00000000      0.00000000      0.00000000</v>
  </separator>
  <separator name="response functions" >
   <i type="logical" name="LADDER"> F  </i>
   <i type="logical" name="LFXC"> F  </i>
   <i type="logical" name="LHARTREE"> T  </i>
   <i type="int" name="IBSE">     0</i>
   <v type="int" name="KPOINT">    -1     0     0     0</v>
   <i type="logical" name="LTCTE"> F  </i>
   <i type="logical" name="LTETE"> F  </i>
   <i type="logical" name="LTRIPLET"> F  </i>
   <i type="logical" name="LFXCEPS"> F  </i>
   <i type="logical" name="LFXHEG"> F  </i>
   <i type="int" name="NATURALO">     0</i>
   <i type="logical" name="L2ORDER"> F  </i>
   <i type="logical" name="LUSEW"> F  </i>
   <i name="ENCUTGW">     -2.00000000</i>
   <i name="ENCUTGWSOFT">     -2.00000000</i>
   <i name="ENCUTLF">     -1.00000000</i>
   <i type="int" name="LMAXMP2">    -1</i>
   <i name="SCISSOR">      0.00000000</i>
   <i type="int" name="NOMEGA">     0</i>
   <i type="int" name="NOMEGAR">     0</i>
   <i type="int" name="NBANDSGW">    -1</i>
   <i type="int" name="NBANDSO">    -1</i>
   <i type="int" name="NBANDSV">    -1</i>
   <i type="int" name="NELM">     1</i>
   <i type="int" name="NELMHF">     1</i>
   <i type="int" name="DIM">     3</i>
   <i type="int" name="ANTIRES">     0</i>
   <i name="OMEGAMAX">    -30.00000000</i>
   <i name="OMEGAMIN">    -30.00000000</i>
   <i name="OMEGATL">   -200.00000000</i>
   <i type="int" name="OMEGAGRID">     0</i>
   <i name="CSHIFT">     -0.10000000</i>
   <i type="logical" name="SELFENERGY"> F  </i>
   <i type="logical" name="LSPECTRAL"> F  </i>
   <i type="logical" name="LSPECTRALGW"> F  </i>
   <i type="logical" name="LSINGLES"> F  </i>
   <i type="logical" name="LFERMIGW"> F  </i>
   <i type="logical" name="ODDONLYGW"> F  </i>
   <i type="logical" name="EVENONLYGW"> F  </i>
   <i type="int" name="NKREDLFX">     1</i>
   <i type="int" name="NKREDLFY">     1</i>
   <i type="int" name="NKREDLFZ">     1</i>
   <i type="int" name="MAXMEM">  1800</i>
   <i type="int" name="TELESCOPE">     0</i>
   <i type="int" name="TAUPAR">     1</i>
   <i type="int" name="OMEGAPAR">    -1</i>
   <i name="LAMBDA">      1.00000000</i>
  </separator>
  <separator name="External order field" >
   <i name="OFIELD_KAPPA">      0.00000000</i>
   <v name="OFIELD_K">      0.00000000      0.00000000      0.00000000</v>
   <i name="OFIELD_Q6_NEAR">      0.00000000</i>
   <i name="OFIELD_Q6_FAR">      0.00000000</i>
   <i name="OFIELD_A">      0.00000000</i>
  </separator>
 </parameters>
 <atominfo>
  <atoms>       2 </atoms>
  <types>       2 </types>
  <array name="atoms" >
   <dimension dim="1">ion</dimension>
   <field type="string">element</field>
   <field type="int">atomtype</field>
   <set>
    <rc><c>O </c><c>   1</c></rc>
    <rc><c>C </c><c>   2</c></rc>
   </set>
  </array>
  <array name="atomtypes" >
   <dimension dim="1">type</dimension>
   <field type="int">atomspertype</field>
   <field type="string">element</field>
   <field>mass</field>
   <field>valence</field>
   <field type="string">pseudopotential</field>
   <set>
    <rc><c>   1</c><c>O </c><c>     16.00000000</c><c>      6.00000000</c><c> PAW_RPBE O 08Apr2002                   </c></rc>
    <rc><c>   1</c><c>C </c><c>     12.01100000</c><c>      4.00000000</c><c> PAW_RPBE C 08Apr2002                   </c></rc>
   </set>
  </array>
 </atominfo>
 <structure name="initialpos" >
  <crystal>
   <varray name="basis" >
    <v>       8.00000000       0.00000000       0.00000000 </v>
    <v>       0.00000000       8.00000000       0.00000000 </v>
    <v>       0.00000000       0.00000000       8.00000000 </v>
   </varray>
   <i name="volume">    512.00000000 </i>
   <varray name="rec_basis" >
    <v>       0.12500000       0.00000000       0.00000000 </v>
    <v>       0.00000000       0.12500000       0.00000000 </v>
    <v>       0.00000000       0.00000000       0.12500000 </v>
   </varray>
  </crystal>
  <varray name="positions" >
   <v>       0.00000000       0.00000000       0.00000000 </v>
   <v>       0.00000000       0.00000000       0.14000000 </v>
  </varray>
 </structure>
 <calculation>
  <scstep>
   <time name="dav">    0.04    0.04</time>
   <time name="total">    0.11    0.12</time>
   <energy>
    <i name="alphaZ">      0.85010715 </i>
    <i name="ewald">     55.03899630 </i>
    <i name="hartreedc">   -516.02856100 </i>
    <i name="XCdc">     39.95561961 </i>
    <i name="pawpsdc">    283.82984571 </i>
    <i name="pawaedc">   -286.83001101 </i>
    <i name="eentropy">     -0.00000000 </i>
    <i name="bandstr">    -96.59155165 </i>
    <i name="atom">    579.39041991 </i>
    <i name="e_fr_energy">     59.61486503 </i>
    <i name="e_wo_entrp">     59.61486503 </i>
    <i name="e_0_energy">     59.61486503 </i>
   </energy>
  </scstep>
  <scstep>
   <time name="dav">    0.06    0.06</time>
   <time name="total">    0.06    0.06</time>
   <energy>
    <i name="e_fr_energy">    -11.41964459 </i>
    <i name="e_wo_entrp">    -11.41964459 </i>
    <i name="e_0_energy">    -11.41964459 </i>
   </energy>
  </scstep>
  <scstep>
   <time name="dav">    0.06    0.05</time>
   <time name="total">    0.06    0.06</time>
   <energy>
    <i name="e_fr_energy">    -15.63755489 </i>
    <i name="e_wo_entrp">    -15.63755489 </i>
    <i name="e_0_energy">    -15.63755489 </i>
   </energy>
  </scstep>
  <scstep>
   <time name="dav">    0.04    0.04</time>
   <time name="total">    0.04    0.04</time>
   <energy>
    <i name="e_fr_energy">    -15.64725587 </i>
    <i name="e_wo_entrp">    -15.64725587 </i>
    <i name="e_0_energy">    -15.64725587 </i>
   </energy>
  </scstep>
  <scstep>
   <time name="dav">    0.08    0.08</time>
   <time name="total">    0.10    0.11</time>
   <energy>
    <i name="e_fr_energy">    -15.64732099 </i>
    <i name="e_wo_entrp">    -15.64732099 </i>
    <i name="e_0_energy">    -15.64732099 </i>
   </energy>
  </scstep>
  <scstep>
   <time name="dav">    0.04    0.04</time>
   <time name="total">    0.10    0.11</time>
   <energy>
    <i name="e_fr_energy">    -14.93603234 </i>
    <i name="e_wo_entrp">    -14.93603234 </i>
    <i name="e_0_energy">    -14.93603234 </i>
   </energy>
  </scstep>
  <scstep>
   <time name="dav">    0.08    0.08</time>
   <time name="total">    0.14    0.14</time>
   <energy>
    <i name="e_fr_energy">    -14.79688614 </i>
    <i name="e_wo_entrp">    -14.79688614 </i>
    <i name="e_0_energy">    -14.79688614 </i>
   </energy>
  </scstep>
  <scstep>
   <time name="dav">    0.08    0.08</time>
   <time name="total">    0.14    0.14</time>
   <energy>
    <i name="e_fr_energy">    -14.75993893 </i>
    <i name="e_wo_entrp">    -14.75993893 </i>
    <i name="e_0_energy">    -14.75993893 </i>
   </energy>
  </scstep>
  <scstep>
   <time name="dav">    0.08    0.07</time>
   <time name="total">    0.14    0.14</time>
   <energy>
    <i name="e_fr_energy">    -14.75891348 </i>
    <i name="e_wo_entrp">    -14.75891348 </i>
    <i name="e_0_energy">    -14.75891348 </i>
   </energy>
  </scstep>
  <scstep>
   <time name="dav">    0.04    0.04</time>
   <time name="total">    0.10    0.10</time>
   <energy>
    <i name="e_fr_energy">    -14.76004355 </i>
    <i name="e_wo_entrp">    -14.76004355 </i>
    <i name="e_0_energy">    -14.76004355 </i>
   </energy>
  </scstep>
  <scstep>
   <time name="dav">    0.04    0.04</time>
   <time name="total">    0.10    0.10</time>
   <energy>
    <i name="e_fr_energy">    -14.76243092 </i>
    <i name="e_wo_entrp">    -14.76243092 </i>
    <i name="e_0_energy">    -14.76243092 </i>
   </energy>
  </scstep>
  <scstep>
   <time name="dav">    0.07    0.08</time>
   <time name="total">    0.14    0.14</time>
   <energy>
    <i name="e_fr_energy">    -14.76333853 </i>
    <i name="e_wo_entrp">    -14.76333853 </i>
    <i name="e_0_energy">    -14.76333853 </i>
   </energy>
  </scstep>
  <scstep>
   <time name="dav">    0.04    0.04</time>
   <time name="total">    0.10    0.11</time>
   <energy>
    <i name="e_fr_energy">    -14.76386197 </i>
    <i name="e_wo_entrp">    -14.76386197 </i>
    <i name="e_0_energy">    -14.76386197 </i>
   </energy>
  </scstep>
  <scstep>
   <time name="dav">    0.04    0.04</time>
   <time name="total">    0.10    0.10</time>
   <energy>
    <i name="e_fr_energy">    -14.76404886 </i>
    <i name="e_wo_entrp">    -14.76404886 </i>
    <i name="e_0_energy">    -14.76404886 </i>
   </energy>
  </scstep>
  <scstep>
   <time name="dav">    0.04    0.04</time>
   <time name="total">    0.08    0.09</time>
   <energy>
    <i name="alphaZ">      0.85010715 </i>
    <i name="ewald">     55.03899630 </i>
    <i name="hartreedc">   -537.88731794 </i>
    <i name="XCdc">     41.24508315 </i>
    <i name="pawpsdc">    384.66232655 </i>
    <i name="pawaedc">   -387.80227849 </i>
    <i name="eentropy">     -0.00000000 </i>
    <i name="bandstr">   -150.26140060 </i>
    <i name="atom">    579.39041991 </i>
    <i name="e_fr_energy">    -14.76406398 </i>
    <i name="e_wo_entrp">    -14.76406398 </i>
    <i name="e_0_energy">    -14.76406398 </i>
   </energy>
  </scstep>
  <structure>
   <crystal>
    <varray name="basis" >
     <v>       8.00000000       0.00000000       0.00000000 </v>
     <v>       0.00000000       8.00000000       0.00000000 </v>
     <v>       0.00000000       0.00000000       8.00000000 </v>
    </varray>
    <i name="volume">    512.00000000 </i>
    <varray name="rec_basis" >
     <v>       0.12500000       0.00000000       0.00000000 </v>
     <v>       0.00000000       0.12500000       0.00000000 </v>
     <v>       0.00000000       0.00000000       0.12500000 </v>
    </varray>
   </crystal>
   <varray name="positions" >
    <v>       0.00000000       0.00000000       0.00000000 </v>
    <v>       0.00000000       0.00000000       0.14000000 </v>
   </varray>
  </structure>
  <varray name="forces" >
   <v>       0.00000000       0.00000000      -2.91489524 </v>
   <v>       0.00000000       0.00000000       2.91489524 </v>
  </varray>
  <varray name="stress" >
   <v>      -2.40578005       0.00000000      -0.00000000 </v>
   <v>       0.00000000      -2.40578005       0.00000000 </v>
   <v>       0.00000000       0.00000000       7.82484431 </v>
  </varray>
  <energy>
   <i name="e_fr_energy">    -14.76406398 </i>
   <i name="e_wo_entrp">    -14.76406398 </i>
   <i name="e_0_energy">     -0.00000000 </i>
  </energy>
  <time name="totalsc">    3.45    3.59</time>
 </calculation>
 <calculation>
  <scstep>
   <time name="dav">    0.04    0.04</time>
   <time name="total">    0.10    0.12</time>
   <energy>
    <i name="alphaZ">      0.85010715 </i>
    <i name="ewald">     -5.81576293 </i>
    <i name="hartreedc">   -497.79972616 </i>
    <i name="XCdc">     40.15474705 </i>
    <i name="pawpsdc">    384.65396938 </i>
    <i name="pawaedc">   -387.79391535 </i>
    <i name="eentropy">     -0.00000000 </i>
    <i name="bandstr">   -126.59674454 </i>
    <i name="atom">    579.39041991 </i>
    <i name="e_fr_energy">    -12.95690549 </i>
    <i name="e_wo_entrp">    -12.95690549 </i>
    <i name="e_0_energy">    -12.95690549 </i>
   </energy>
  </scstep>
  <scstep>
   <time name="dav">    0.06    0.06</time>
   <time name="total">    0.12    0.12</time>
   <energy>
    <i name="e_fr_energy">    -12.73740970 </i>
    <i name="e_wo_entrp">    -12.73740970 </i>
    <i name="e_0_energy">    -12.73740970 </i>
   </energy>
  </scstep>
  <scstep>
   <time name="dav">    0.07    0.08</time>
   <time name="total">    0.13    0.14</time>
   <energy>
    <i name="e_fr_energy">    -12.68673380 </i>
    <i name="e_wo_entrp">    -12.68673380 </i>
    <i name="e_0_energy">    -12.68673380 </i>
   </energy>
  </scstep>
  <scstep>
   <time name="dav">    0.06    0.05</time>
   <time name="total">    0.11    0.12</time>
   <energy>
    <i name="e_fr_energy">    -12.65336314 </i>
    <i name="e_wo_entrp">    -12.65336314 </i>
    <i name="e_0_energy">    -12.65336314 </i>
   </energy>
  </scstep>
  <scstep>
   <time name="dav">    0.04    0.04</time>
   <time name="total">    0.10    0.10</time>
   <energy>
    <i name="e_fr_energy">    -12.65703408 </i>
    <i name="e_wo_entrp">    -12.65703408 </i>
    <i name="e_0_energy">    -12.65703408 </i>
   </energy>
  </scstep>
  <scstep>
   <time name="dav">    0.04    0.04</time>
   <time name="total">    0.10    0.10</time>
   <energy>
    <i name="e_fr_energy">    -12.65863498 </i>
    <i name="e_wo_entrp">    -12.65863498 </i>
    <i name="e_0_energy">    -12.65863498 </i>
   </energy>
  </scstep>
  <scstep>
   <time name="dav">    0.04    0.04</time>
   <time name="total">    0.10    0.10</time>
   <energy>
    <i name="e_fr_energy">    -12.65956790 </i>
    <i name="e_wo_entrp">    -12.65956790 </i>
    <i name="e_0_energy">    -12.65956790 </i>
   </energy>
  </scstep>
  <scstep>
   <time name="dav">    0.04    0.04</time>
   <time name="total">    0.10    0.11</time>
   <energy>
    <i name="e_fr_energy">    -12.66066098 </i>
    <i name="e_wo_entrp">    -12.66066098 </i>
    <i name="e_0_energy">    -12.66066098 </i>
   </energy>
  </scstep>
  <scstep>
   <time name="dav">    0.04    0.04</time>
   <time name="total">    0.10    0.10</time>
   <energy>
    <i name="e_fr_energy">    -12.66095764 </i>
    <i name="e_wo_entrp">    -12.66095764 </i>
    <i name="e_0_energy">    -12.66095764 </i>
   </energy>
  </scstep>
  <scstep>
   <time name="dav">    0.04    0.04</time>
   <time name="total">    0.08    0.09</time>
   <energy>
    <i name="alphaZ">      0.85010715 </i>
    <i name="ewald">     -5.81576293 </i>
    <i name="hartreedc">   -487.55347985 </i>
    <i name="XCdc">     39.46092444 </i>
    <i name="pawpsdc">    321.18334198 </i>
    <i name="pawaedc">   -324.04754300 </i>
    <i name="eentropy">     -0.00000000 </i>
    <i name="bandstr">   -136.12899994 </i>
    <i name="atom">    579.39041991 </i>
    <i name="e_fr_energy">    -12.66099225 </i>
    <i name="e_wo_entrp">    -12.66099225 </i>
    <i name="e_0_energy">    -12.66099225 </i>
   </energy>
  </scstep>
  <structure>
   <crystal>
    <varray name="basis" >
     <v>       8.00000000       0.00000000       0.00000000 </v>
     <v>       0.00000000       8.00000000       0.00000000 </v>
     <v>       0.00000000       0.00000000       8.00000000 </v>
    </varray>
    <i name="volume">    512.00000000 </i>
    <varray name="rec_basis" >
     <v>       0.12500000       0.00000000       0.00000000 </v>
     <v>       0.00000000       0.12500000       0.00000000 </v>
     <v>       0.00000000       0.00000000       0.12500000 </v>
    </varray>
   </crystal>
   <varray name="positions" >
    <v>       0.00000000       0.00000000      -0.01757779 </v>
    <v>       0.00000000       0.00000000       0.15757779 </v>
   </varray>
  </structure>
  <varray name="forces" >
   <v>       0.00000000      -0.00000000      12.23844217 </v>
   <v>      -0.00000000       0.00000000     -12.23844217 </v>
  </varray>
  <varray name="stress" >
   <v>      -2.48949593       0.00000000       0.00000000 </v>
   <v>      -0.00000000      -2.48949593       0.00000000 </v>
   <v>       0.00000000      -0.00000000     -55.85213354 </v>
  </varray>
  <energy>
   <i name="e_fr_energy">    -12.66099225 </i>
   <i name="e_wo_entrp">    -12.66099225 </i>
   <i name="e_0_energy">     -0.00000000 </i>
  </energy>
  <time name="totalsc">    1.21    1.32</time>
 </calculation>
 <calculation>
  <scstep>
   <time name="dav">    0.04    0.04</time>
   <time name="total">    0.10    0.10</time>
   <energy>
    <i name="alphaZ">      0.85010715 </i>
    <i name="ewald">     41.00709000 </i>
    <i name="hartreedc">   -518.17605781 </i>
    <i name="XCdc">     40.26943870 </i>
    <i name="pawpsdc">    321.13947771 </i>
    <i name="pawaedc">   -324.00346758 </i>
    <i name="eentropy">     -0.00000000 </i>
    <i name="bandstr">   -155.31621630 </i>
    <i name="atom">    579.39041991 </i>
    <i name="e_fr_energy">    -14.83920823 </i>
    <i name="e_wo_entrp">    -14.83920823 </i>
    <i name="e_0_energy">    -14.83920823 </i>
   </energy>
  </scstep>
  <scstep>
   <time name="dav">    0.06    0.06</time>
   <time name="total">    0.12    0.12</time>
   <energy>
    <i name="e_fr_energy">    -14.81732484 </i>
    <i name="e_wo_entrp">    -14.81732484 </i>
    <i name="e_0_energy">    -14.81732484 </i>
   </energy>
  </scstep>
  <scstep>
   <time name="dav">    0.06    0.05</time>
   <time name="total">    0.11    0.13</time>
   <energy>
    <i name="e_fr_energy">    -14.75872150 </i>
    <i name="e_wo_entrp">    -14.75872150 </i>
    <i name="e_0_energy">    -14.75872150 </i>
   </energy>
  </scstep>
  <scstep>
   <time name="dav">    0.04    0.04</time>
   <time name="total">    0.10    0.10</time>
   <energy>
    <i name="e_fr_energy">    -14.74333335 </i>
    <i name="e_wo_entrp">    -14.74333335 </i>
    <i name="e_0_energy">    -14.74333335 </i>
   </energy>
  </scstep>
  <scstep>
   <time name="dav">    0.04    0.04</time>
   <time name="total">    0.10    0.10</time>
   <energy>
    <i name="e_fr_energy">    -14.74344268 </i>
    <i name="e_wo_entrp">    -14.74344268 </i>
    <i name="e_0_energy">    -14.74344268 </i>
   </energy>
  </scstep>
  <scstep>
   <time name="dav">    0.07    0.08</time>
   <time name="total">    0.14    0.14</time>
   <energy>
    <i name="e_fr_energy">    -14.74477700 </i>
    <i name="e_wo_entrp">    -14.74477700 </i>
    <i name="e_0_energy">    -14.74477700 </i>
   </energy>
  </scstep>
  <scstep>
   <time name="dav">    0.05    0.06</time>
   <time name="total">    0.12    0.12</time>
   <energy>
    <i name="e_fr_energy">    -14.74596941 </i>
    <i name="e_wo_entrp">    -14.74596941 </i>
    <i name="e_0_energy">    -14.74596941 </i>
   </energy>
  </scstep>
  <scstep>
   <time name="dav">    0.04    0.04</time>
   <time name="total">    0.10    0.10</time>
   <energy>
    <i name="e_fr_energy">    -14.74740559 </i>
    <i name="e_wo_entrp">    -14.74740559 </i>
    <i name="e_0_energy">    -14.74740559 </i>
   </energy>
  </scstep>
  <scstep>
   <time name="dav">    0.04    0.04</time>
   <time name="total">    0.10    0.11</time>
   <energy>
    <i name="e_fr_energy">    -14.74784080 </i>
    <i name="e_wo_entrp">    -14.74784080 </i>
    <i name="e_0_energy">    -14.74784080 </i>
   </energy>
  </scstep>
  <scstep>
   <time name="dav">    0.04    0.04</time>
   <time name="total">    0.08    0.09</time>
   <energy>
    <i name="alphaZ">      0.85010715 </i>
    <i name="ewald">     41.00709000 </i>
    <i name="hartreedc">   -526.66099509 </i>
    <i name="XCdc">     40.82412594 </i>
    <i name="pawpsdc">    367.12653419 </i>
    <i name="pawaedc">   -370.18323080 </i>
    <i name="eentropy">     -0.00000000 </i>
    <i name="bandstr">   -147.10193729 </i>
    <i name="atom">    579.39041991 </i>
    <i name="e_fr_energy">    -14.74788598 </i>
    <i name="e_wo_entrp">    -14.74788598 </i>
    <i name="e_0_energy">    -14.74788598 </i>
   </energy>
  </scstep>
  <structure>
   <crystal>
    <varray name="basis" >
     <v>       8.00000000       0.00000000       0.00000000 </v>
     <v>       0.00000000       8.00000000       0.00000000 </v>
     <v>       0.00000000       0.00000000       8.00000000 </v>
    </varray>
    <i name="volume">    512.00000000 </i>
    <varray name="rec_basis" >
     <v>       0.12500000       0.00000000       0.00000000 </v>
     <v>       0.00000000       0.12500000       0.00000000 </v>
     <v>       0.00000000       0.00000000       0.12500000 </v>
    </varray>
   </crystal>
   <varray name="positions" >
    <v>       0.00000000       0.00000000      -0.00338126 </v>
    <v>       0.00000000       0.00000000       0.14338126 </v>
   </varray>
  </structure>
  <varray name="forces" >
   <v>       0.00000000       0.00000000       3.11883769 </v>
   <v>       0.00000000       0.00000000      -3.11883769 </v>
  </varray>
  <varray name="stress" >
   <v>      -2.42968601       0.00000000       0.00000000 </v>
   <v>       0.00000000      -2.42968601       0.00000000 </v>
   <v>       0.00000000       0.00000000     -13.71329679 </v>
  </varray>
  <energy>
   <i name="e_fr_energy">    -14.74788598 </i>
   <i name="e_wo_entrp">    -14.74788598 </i>
   <i name="e_0_energy">     -0.00000000 </i>
  </energy>
  <time name="totalsc">    1.24    1.30</time>
 </calculation>
 <calculation>
  <scstep>
   <time name="dav">    0.04    0.04</time>
   <time name="total">    0.10    0.10</time>
   <energy>
    <i name="alphaZ">      0.85010715 </i>
    <i name="ewald">     48.09137011 </i>
    <i name="hartreedc">   -530.85514774 </i>
    <i name="XCdc">     40.94694117 </i>
    <i name="pawpsdc">    367.12555205 </i>
    <i name="pawaedc">   -370.18213775 </i>
    <i name="eentropy">     -0.00000000 </i>
    <i name="bandstr">   -150.16727379 </i>
    <i name="atom">    579.39041991 </i>
    <i name="e_fr_energy">    -14.80016891 </i>
    <i name="e_wo_entrp">    -14.80016891 </i>
    <i name="e_0_energy">    -14.80016891 </i>
   </energy>
  </scstep>
  <scstep>
   <time name="dav">    0.06    0.05</time>
   <time name="total">    0.12    0.12</time>
   <energy>
    <i name="e_fr_energy">    -14.79849390 </i>
    <i name="e_wo_entrp">    -14.79849390 </i>
    <i name="e_0_energy">    -14.79849390 </i>
   </energy>
  </scstep>
  <scstep>
   <time name="dav">    0.06    0.06</time>
   <time name="total">    0.12    0.12</time>
   <energy>
    <i name="e_fr_energy">    -14.79692157 </i>
    <i name="e_wo_entrp">    -14.79692157 </i>
    <i name="e_0_energy">    -14.79692157 </i>
   </energy>
  </scstep>
  <scstep>
   <time name="dav">    0.04    0.04</time>
   <time name="total">    0.08    0.10</time>
   <energy>
    <i name="alphaZ">      0.85010715 </i>
    <i name="ewald">     48.09137011 </i>
    <i name="hartreedc">   -532.39125019 </i>
    <i name="XCdc">     41.03807239 </i>
    <i name="pawpsdc">    375.15840565 </i>
    <i name="pawaedc">   -378.25485735 </i>
    <i name="eentropy">     -0.00000000 </i>
    <i name="bandstr">   -148.67909346 </i>
    <i name="atom">    579.39041991 </i>
    <i name="e_fr_energy">    -14.79682580 </i>
    <i name="e_wo_entrp">    -14.79682580 </i>
    <i name="e_0_energy">    -14.79682580 </i>
   </energy>
  </scstep>
  <structure>
   <crystal>
    <varray name="basis" >
     <v>       8.00000000       0.00000000       0.00000000 </v>
     <v>       0.00000000       8.00000000       0.00000000 </v>
     <v>       0.00000000       0.00000000       8.00000000 </v>
    </varray>
    <i name="volume">    512.00000000 </i>
    <varray name="rec_basis" >
     <v>       0.12500000       0.00000000       0.00000000 </v>
     <v>       0.00000000       0.12500000       0.00000000 </v>
     <v>       0.00000000       0.00000000       0.12500000 </v>
    </varray>
   </crystal>
   <varray name="positions" >
    <v>       0.00000000       0.00000000      -0.00163349 </v>
    <v>       0.00000000       0.00000000       0.14163349 </v>
   </varray>
  </structure>
  <varray name="forces" >
   <v>       0.00000000      -0.00000000       0.28334031 </v>
   <v>       0.00000000       0.00000000      -0.28334031 </v>
  </varray>
  <varray name="stress" >
   <v>      -2.48294210       0.00000000       0.00000000 </v>
   <v>       0.00000000      -2.48294210       0.00000000 </v>
   <v>       0.00000000       0.00000000      -3.43514470 </v>
  </varray>
  <energy>
   <i name="e_fr_energy">    -14.79682580 </i>
   <i name="e_wo_entrp">    -14.79682580 </i>
   <i name="e_0_energy">     -0.00000000 </i>
  </energy>
  <time name="totalsc">    0.59    0.63</time>
  <eigenvalues>
   <array>
    <dimension dim="1">band</dimension>
    <dimension dim="2">kpoint</dimension>
    <dimension dim="3">spin</dimension>
    <field>eigene</field>
    <field>occ</field>
    <set>
     <set comment="spin 1">
      <set comment="kpoint 1">
       <r>  -28.9378    1.0000 </r>
       <r>  -13.7631    1.0000 </r>
       <r>  -11.4347    1.0000 </r>
       <r>  -11.4347    1.0000 </r>
       <r>   -8.7693    1.0000 </r>
       <r>   -1.8761    0.0000 </r>
       <r>   -1.8761    0.0000 </r>
       <r>   -0.3152    0.0000 </r>
       <r>    1.6850    0.0000 </r>
       <r>    1.8214    0.0000 </r>
       <r>    1.8214    0.0000 </r>
       <r>    1.8485    0.0000 </r>
       <r>    1.8961    0.0000 </r>
       <r>    2.4174    0.0000 </r>
       <r>    3.6586    0.0000 </r>
       <r>    4.0542    0.0000 </r>
      </set>
     </set>
    </set>
   </array>
  </eigenvalues>
  <separator name="orbital magnetization" >
   <v name="MAGDIPOLOUT">      0.00000000      0.00000000      0.00000000</v>
  </separator>
  <dos>
   <i name="efermi">     -7.75516881 </i>
   <total>
    <array>
     <dimension dim="1">gridpoints</dimension>
     <dimension dim="2">spin</dimension>
     <field>energy</field>
     <field>total</field>
     <field>integrated</field>
     <set>
      <set comment="spin 1">
       <r>   -30.9378     0.0000     0.0000 </r>
       <r>   -30.8144     0.0000     0.0000 </r>
       <r>   -30.6911     0.0000     0.0000 </r>
       <r>   -30.5678     0.0000     0.0000 </r>
       <r>   -30.4445     0.0000     0.0000 </r>
       <r>   -30.3212     0.0000     0.0000 </r>
       <r>   -30.1979     0.0000     0.0000 </r>
       <r>   -30.0746     0.0000     0.0000 </r>
       <r>   -29.9513     0.0000     0.0000 </r>
       <r>   -29.8280     0.0000     0.0000 </r>
       <r>   -29.7047     0.0000     0.0000 </r>
       <r>   -29.5814     0.0000     0.0000 </r>
       <r>   -29.4581     0.0019     0.0002 </r>
       <r>   -29.3348     0.0386     0.0050 </r>
       <r>   -29.2115     0.3888     0.0529 </r>
       <r>   -29.0882     1.9027     0.2876 </r>
       <r>   -28.9648     4.5456     0.8481 </r>
       <r>   -28.8415     5.3171     1.5037 </r>
       <r>   -28.7182     3.0469     1.8794 </r>
       <r>   -28.5949     0.8537     1.9847 </r>
       <r>   -28.4716     0.1165     1.9990 </r>
       <r>   -28.3483     0.0077     2.0000 </r>
       <r>   -28.2250     0.0002     2.0000 </r>
       <r>   -28.1017     0.0000     2.0000 </r>
       <r>   -27.9784     0.0000     2.0000 </r>
       <r>   -27.8551     0.0000     2.0000 </r>
       <r>   -27.7318     0.0000     2.0000 </r>
       <r>   -27.6085     0.0000     2.0000 </r>
       <r>   -27.4852     0.0000     2.0000 </r>
       <r>   -27.3619     0.0000     2.0000 </r>
       <r>   -27.2386     0.0000     2.0000 </r>
       <r>   -27.1152     0.0000     2.0000 </r>
       <r>   -26.9919     0.0000     2.0000 </r>
       <r>   -26.8686     0.0000     2.0000 </r>
       <r>   -26.7453     0.0000     2.0000 </r>
       <r>   -26.6220     0.0000     2.0000 </r>
       <r>   -26.4987     0.0000     2.0000 </r>
       <r>   -26.3754     0.0000     2.0000 </r>
       <r>   -26.2521     0.0000     2.0000 </r>
       <r>   -26.1288     0.0000     2.0000 </r>
       <r>   -26.0055     0.0000     2.0000 </r>
       <r>   -25.8822     0.0000     2.0000 </r>
       <r>   -25.7589     0.0000     2.0000 </r>
       <r>   -25.6356     0.0000     2.0000 </r>
       <r>   -25.5123     0.0000     2.0000 </r>
       <r>   -25.3890     0.0000     2.0000 </r>
       <r>   -25.2657     0.0000     2.0000 </r>
       <r>   -25.1423     0.0000     2.0000 </r>
       <r>   -25.0190     0.0000     2.0000 </r>
       <r>   -24.8957     0.0000     2.0000 </r>
       <r>   -24.7724     0.0000     2.0000 </r>
       <r>   -24.6491     0.0000     2.0000 </r>
       <r>   -24.5258     0.0000     2.0000 </r>
       <r>   -24.4025     0.0000     2.0000 </r>
       <r>   -24.2792     0.0000     2.0000 </r>
       <r>   -24.1559     0.0000     2.0000 </r>
       <r>   -24.0326     0.0000     2.0000 </r>
       <r>   -23.9093     0.0000     2.0000 </r>
       <r>   -23.7860     0.0000     2.0000 </r>
       <r>   -23.6627     0.0000     2.0000 </r>
       <r>   -23.5394     0.0000     2.0000 </r>
       <r>   -23.4161     0.0000     2.0000 </r>
       <r>   -23.2927     0.0000     2.0000 </r>
       <r>   -23.1694     0.0000     2.0000 </r>
       <r>   -23.0461     0.0000     2.0000 </r>
       <r>   -22.9228     0.0000     2.0000 </r>
       <r>   -22.7995     0.0000     2.0000 </r>
       <r>   -22.6762     0.0000     2.0000 </r>
       <r>   -22.5529     0.0000     2.0000 </r>
       <r>   -22.4296     0.0000     2.0000 </r>
       <r>   -22.3063     0.0000     2.0000 </r>
       <r>   -22.1830     0.0000     2.0000 </r>
       <r>   -22.0597     0.0000     2.0000 </r>
       <r>   -21.9364     0.0000     2.0000 </r>
       <r>   -21.8131     0.0000     2.0000 </r>
       <r>   -21.6898     0.0000     2.0000 </r>
       <r>   -21.5665     0.0000     2.0000 </r>
       <r>   -21.4432     0.0000     2.0000 </r>
       <r>   -21.3198     0.0000     2.0000 </r>
       <r>   -21.1965     0.0000     2.0000 </r>
       <r>   -21.0732     0.0000     2.0000 </r>
       <r>   -20.9499     0.0000     2.0000 </r>
       <r>   -20.8266     0.0000     2.0000 </r>
       <r>   -20.7033     0.0000     2.0000 </r>
       <r>   -20.5800     0.0000     2.0000 </r>
       <r>   -20.4567     0.0000     2.0000 </r>
       <r>   -20.3334     0.0000     2.0000 </r>
       <r>   -20.2101     0.0000     2.0000 </r>
       <r>   -20.0868     0.0000     2.0000 </r>
       <r>   -19.9635     0.0000     2.0000 </r>
       <r>   -19.8402     0.0000     2.0000 </r>
       <r>   -19.7169     0.0000     2.0000 </r>
       <r>   -19.5936     0.0000     2.0000 </r>
       <r>   -19.4702     0.0000     2.0000 </r>
       <r>   -19.3469     0.0000     2.0000 </r>
       <r>   -19.2236     0.0000     2.0000 </r>
       <r>   -19.1003     0.0000     2.0000 </r>
       <r>   -18.9770     0.0000     2.0000 </r>
       <r>   -18.8537     0.0000     2.0000 </r>
       <r>   -18.7304     0.0000     2.0000 </r>
       <r>   -18.6071     0.0000     2.0000 </r>
       <r>   -18.4838     0.0000     2.0000 </r>
       <r>   -18.3605     0.0000     2.0000 </r>
       <r>   -18.2372     0.0000     2.0000 </r>
       <r>   -18.1139     0.0000     2.0000 </r>
       <r>   -17.9906     0.0000     2.0000 </r>
       <r>   -17.8673     0.0000     2.0000 </r>
       <r>   -17.7440     0.0000     2.0000 </r>
       <r>   -17.6207     0.0000     2.0000 </r>
       <r>   -17.4973     0.0000     2.0000 </r>
       <r>   -17.3740     0.0000     2.0000 </r>
       <r>   -17.2507     0.0000     2.0000 </r>
       <r>   -17.1274     0.0000     2.0000 </r>
       <r>   -17.0041     0.0000     2.0000 </r>
       <r>   -16.8808     0.0000     2.0000 </r>
       <r>   -16.7575     0.0000     2.0000 </r>
       <r>   -16.6342     0.0000     2.0000 </r>
       <r>   -16.5109     0.0000     2.0000 </r>
       <r>   -16.3876     0.0000     2.0000 </r>
       <r>   -16.2643     0.0000     2.0000 </r>
       <r>   -16.1410     0.0000     2.0000 </r>
       <r>   -16.0177     0.0000     2.0000 </r>
       <r>   -15.8944     0.0000     2.0000 </r>
       <r>   -15.7711     0.0000     2.0000 </r>
       <r>   -15.6477     0.0000     2.0000 </r>
       <r>   -15.5244     0.0000     2.0000 </r>
       <r>   -15.4011     0.0000     2.0000 </r>
       <r>   -15.2778     0.0000     2.0000 </r>
       <r>   -15.1545     0.0000     2.0000 </r>
       <r>   -15.0312     0.0000     2.0000 </r>
       <r>   -14.9079     0.0000     2.0000 </r>
       <r>   -14.7846     0.0000     2.0000 </r>
       <r>   -14.6613     0.0000     2.0000 </r>
       <r>   -14.5380     0.0000     2.0000 </r>
       <r>   -14.4147     0.0000     2.0000 </r>
       <r>   -14.2914     0.0015     2.0002 </r>
       <r>   -14.1681     0.0325     2.0042 </r>
       <r>   -14.0448     0.3426     2.0464 </r>
       <r>   -13.9215     1.7559     2.2630 </r>
       <r>   -13.7981     4.3919     2.8045 </r>
       <r>   -13.6748     5.3778     3.4676 </r>
       <r>   -13.5515     3.2261     3.8654 </r>
       <r>   -13.4282     0.9464     3.9821 </r>
       <r>   -13.3049     0.1353     3.9988 </r>
       <r>   -13.1816     0.0094     4.0000 </r>
       <r>   -13.0583     0.0003     4.0000 </r>
       <r>   -12.9350     0.0000     4.0000 </r>
       <r>   -12.8117     0.0000     4.0000 </r>
       <r>   -12.6884     0.0000     4.0000 </r>
       <r>   -12.5651     0.0000     4.0000 </r>
       <r>   -12.4418     0.0000     4.0000 </r>
       <r>   -12.3185     0.0000     4.0000 </r>
       <r>   -12.1952     0.0000     4.0000 </r>
       <r>   -12.0719     0.0001     4.0000 </r>
       <r>   -11.9486     0.0044     4.0006 </r>
       <r>   -11.8252     0.0887     4.0115 </r>
       <r>   -11.7019     0.8598     4.1175 </r>
       <r>   -11.5786     4.0529     4.6173 </r>
       <r>   -11.4553     9.3286     5.7675 </r>
       <r>   -11.3320    10.5139     7.0640 </r>
       <r>   -11.2087     5.8048     7.7797 </r>
       <r>   -11.0854     1.5668     7.9729 </r>
       <r>   -10.9621     0.2059     7.9983 </r>
       <r>   -10.8388     0.0131     7.9999 </r>
       <r>   -10.7155     0.0004     8.0000 </r>
       <r>   -10.5922     0.0000     8.0000 </r>
       <r>   -10.4689     0.0000     8.0000 </r>
       <r>   -10.3456     0.0000     8.0000 </r>
       <r>   -10.2223     0.0000     8.0000 </r>
       <r>   -10.0990     0.0000     8.0000 </r>
       <r>    -9.9756     0.0000     8.0000 </r>
       <r>    -9.8523     0.0000     8.0000 </r>
       <r>    -9.7290     0.0000     8.0000 </r>
       <r>    -9.6057     0.0000     8.0000 </r>
       <r>    -9.4824     0.0000     8.0000 </r>
       <r>    -9.3591     0.0002     8.0000 </r>
       <r>    -9.2358     0.0076     8.0010 </r>
       <r>    -9.1125     0.1158     8.0152 </r>
       <r>    -8.9892     0.8499     8.1200 </r>
       <r>    -8.8659     3.0393     8.4948 </r>
       <r>    -8.7426     5.3142     9.1501 </r>
       <r>    -8.6193     4.5519     9.7114 </r>
       <r>    -8.4960     1.9090     9.9468 </r>
       <r>    -8.3727     0.3909     9.9950 </r>
       <r>    -8.2494     0.0389     9.9998 </r>
       <r>    -8.1261     0.0019    10.0000 </r>
       <r>    -8.0027     0.0000    10.0000 </r>
       <r>    -7.8794     0.0000    10.0000 </r>
       <r>    -7.7561     0.0000    10.0000 </r>
       <r>    -7.6328     0.0000    10.0000 </r>
       <r>    -7.5095     0.0000    10.0000 </r>
       <r>    -7.3862     0.0000    10.0000 </r>
       <r>    -7.2629     0.0000    10.0000 </r>
       <r>    -7.1396     0.0000    10.0000 </r>
       <r>    -7.0163     0.0000    10.0000 </r>
       <r>    -6.8930     0.0000    10.0000 </r>
       <r>    -6.7697     0.0000    10.0000 </r>
       <r>    -6.6464     0.0000    10.0000 </r>
       <r>    -6.5231     0.0000    10.0000 </r>
       <r>    -6.3998     0.0000    10.0000 </r>
       <r>    -6.2765     0.0000    10.0000 </r>
       <r>    -6.1531     0.0000    10.0000 </r>
       <r>    -6.0298     0.0000    10.0000 </r>
       <r>    -5.9065     0.0000    10.0000 </r>
       <r>    -5.7832     0.0000    10.0000 </r>
       <r>    -5.6599     0.0000    10.0000 </r>
       <r>    -5.5366     0.0000    10.0000 </r>
       <r>    -5.4133     0.0000    10.0000 </r>
       <r>    -5.2900     0.0000    10.0000 </r>
       <r>    -5.1667     0.0000    10.0000 </r>
       <r>    -5.0434     0.0000    10.0000 </r>
       <r>    -4.9201     0.0000    10.0000 </r>
       <r>    -4.7968     0.0000    10.0000 </r>
       <r>    -4.6735     0.0000    10.0000 </r>
       <r>    -4.5502     0.0000    10.0000 </r>
       <r>    -4.4269     0.0000    10.0000 </r>
       <r>    -4.3036     0.0000    10.0000 </r>
       <r>    -4.1802     0.0000    10.0000 </r>
       <r>    -4.0569     0.0000    10.0000 </r>
       <r>    -3.9336     0.0000    10.0000 </r>
       <r>    -3.8103     0.0000    10.0000 </r>
       <r>    -3.6870     0.0000    10.0000 </r>
       <r>    -3.5637     0.0000    10.0000 </r>
       <r>    -3.4404     0.0000    10.0000 </r>
       <r>    -3.3171     0.0000    10.0000 </r>
       <r>    -3.1938     0.0000    10.0000 </r>
       <r>    -3.0705     0.0000    10.0000 </r>
       <r>    -2.9472     0.0000    10.0000 </r>
       <r>    -2.8239     0.0000    10.0000 </r>
       <r>    -2.7006     0.0000    10.0000 </r>
       <r>    -2.5773     0.0000    10.0000 </r>
       <r>    -2.4540     0.0007    10.0001 </r>
       <r>    -2.3306     0.0205    10.0026 </r>
       <r>    -2.2073     0.2898    10.0383 </r>
       <r>    -2.0840     1.9841    10.2830 </r>
       <r>    -1.9607     6.6197    11.0993 </r>
       <r>    -1.8374    10.8019    12.4312 </r>
       <r>    -1.7141     8.6354    13.4960 </r>
       <r>    -1.5908     3.3794    13.9127 </r>
       <r>    -1.4675     0.6454    13.9923 </r>
       <r>    -1.3442     0.0599    13.9997 </r>
       <r>    -1.2209     0.0027    14.0000 </r>
       <r>    -1.0976     0.0001    14.0000 </r>
       <r>    -0.9743     0.0000    14.0000 </r>
       <r>    -0.8510     0.0012    14.0002 </r>
       <r>    -0.7277     0.0275    14.0035 </r>
       <r>    -0.6044     0.3031    14.0409 </r>
       <r>    -0.4810     1.6227    14.2410 </r>
       <r>    -0.3577     4.2393    14.7637 </r>
       <r>    -0.2344     5.4214    15.4322 </r>
       <r>    -0.1111     3.3966    15.8510 </r>
       <r>     0.0122     1.0409    15.9794 </r>
       <r>     0.1355     0.1554    15.9986 </r>
       <r>     0.2588     0.0113    16.0000 </r>
       <r>     0.3821     0.0004    16.0000 </r>
       <r>     0.5054     0.0000    16.0000 </r>
       <r>     0.6287     0.0000    16.0000 </r>
       <r>     0.7520     0.0000    16.0000 </r>
       <r>     0.8753     0.0000    16.0000 </r>
       <r>     0.9986     0.0000    16.0000 </r>
       <r>     1.1219     0.0006    16.0001 </r>
       <r>     1.2452     0.0156    16.0020 </r>
       <r>     1.3685     0.2180    16.0289 </r>
       <r>     1.4919     1.6116    16.2276 </r>
       <r>     1.6152     6.7250    17.0568 </r>
       <r>     1.7385    16.6594    19.1110 </r>
       <r>     1.8618    24.4085    22.1208 </r>
       <r>     1.9851    20.1917    24.6105 </r>
       <r>     2.1084     9.1744    25.7418 </r>
       <r>     2.2317     3.3693    26.1572 </r>
       <r>     2.3550     4.0553    26.6573 </r>
       <r>     2.4783     5.4826    27.3333 </r>
       <r>     2.6016     3.8440    27.8073 </r>
       <r>     2.7249     1.3221    27.9703 </r>
       <r>     2.8482     0.2218    27.9977 </r>
       <r>     2.9715     0.0181    27.9999 </r>
       <r>     3.0948     0.0012    28.0001 </r>
       <r>     3.2181     0.0144    28.0018 </r>
       <r>     3.3415     0.1872    28.0249 </r>
       <r>     3.4648     1.1807    28.1705 </r>
       <r>     3.5881     3.6366    28.6189 </r>
       <r>     3.7114     5.5746    29.3063 </r>
       <r>     3.8347     4.8756    29.9075 </r>
       <r>     3.9580     4.4973    30.4620 </r>
       <r>     4.0813     5.5723    31.1491 </r>
       <r>     4.2046     4.5674    31.7123 </r>
       <r>     4.3279     1.9036    31.9471 </r>
       <r>     4.4512     0.3888    31.9950 </r>
       <r>     4.5745     0.0386    31.9998 </r>
       <r>     4.6978     0.0019    32.0000 </r>
       <r>     4.8211     0.0000    32.0000 </r>
       <r>     4.9444     0.0000    32.0000 </r>
       <r>     5.0677     0.0000    32.0000 </r>
       <r>     5.1910     0.0000    32.0000 </r>
       <r>     5.3144     0.0000    32.0000 </r>
       <r>     5.4377     0.0000    32.0000 </r>
       <r>     5.5610     0.0000    32.0000 </r>
       <r>     5.6843     0.0000    32.0000 </r>
       <r>     5.8076     0.0000    32.0000 </r>
       <r>     5.9309     0.0000    32.0000 </r>
       <r>     6.0542     0.0000    32.0000 </r>
      </set>
     </set>
    </array>
   </total>
  </dos>
 </calculation>
 <structure name="finalpos" >
  <crystal>
   <varray name="basis" >
    <v>       8.00000000       0.00000000       0.00000000 </v>
    <v>       0.00000000       8.00000000       0.00000000 </v>
    <v>       0.00000000       0.00000000       8.00000000 </v>
   </varray>
   <i name="volume">    512.00000000 </i>
   <varray name="rec_basis" >
    <v>       0.12500000       0.00000000       0.00000000 </v>
    <v>       0.00000000       0.12500000       0.00000000 </v>
    <v>       0.00000000       0.00000000       0.12500000 </v>
   </varray>
  </crystal>
  <varray name="positions" >
   <v>       0.00000000       0.00000000      -0.00163349 </v>
   <v>       0.00000000       0.00000000       0.14163349 </v>
  </varray>
 </structure>
</modeling>
