   2   2   1   0
  0.2560000E+03  0.8000000E-09  0.8000000E-09  0.8000000E-09  0.5000000E-15
  1.000000000000000E-004
  CAR 
 CO dimer in a box                       
      6.10213817    -30.98802312  301     -7.74388949      1.00000000
    -30.988  0.0000E+00  0.0000E+00
    -30.864  0.0000E+00  0.0000E+00
    -30.741  0.0000E+00  0.0000E+00
    -30.617  0.0000E+00  0.0000E+00
    -30.493  0.0000E+00  0.0000E+00
    -30.370  0.0000E+00  0.0000E+00
    -30.246  0.0000E+00  0.0000E+00
    -30.123  0.8082E-14  0.9992E-15
    -29.999  0.7096E-11  0.8783E-12
    -29.875  0.2837E-08  0.3516E-09
    -29.752  0.5365E-06  0.6668E-07
    -29.628  0.4815E-04  0.6020E-05
    -29.504  0.2060E-02  0.2608E-03
    -29.381  0.4223E-01  0.5482E-02
    -29.257  0.4170E+00  0.5704E-01
    -29.134  0.1994E+01  0.3036E+00
    -29.010  0.4639E+01  0.8772E+00
    -28.886  0.5266E+01  0.1528E+01
    -28.763  0.2918E+01  0.1889E+01
    -28.639  0.7876E+00  0.1986E+01
    -28.515  0.1031E+00  0.1999E+01
    -28.392  0.6519E-02  0.2000E+01
    -28.268  0.1978E-03  0.2000E+01
    -28.144  0.2864E-05  0.2000E+01
    -28.021  0.1972E-07  0.2000E+01
    -27.897  0.6430E-10  0.2000E+01
    -27.774  0.9878E-13  0.2000E+01
    -27.650  0.0000E+00  0.2000E+01
    -27.526  0.0000E+00  0.2000E+01
    -27.403  0.0000E+00  0.2000E+01
    -27.279  0.0000E+00  0.2000E+01
    -27.155  0.0000E+00  0.2000E+01
    -27.032  0.0000E+00  0.2000E+01
    -26.908  0.0000E+00  0.2000E+01
    -26.784  0.0000E+00  0.2000E+01
    -26.661  0.0000E+00  0.2000E+01
    -26.537  0.0000E+00  0.2000E+01
    -26.414  0.0000E+00  0.2000E+01
    -26.290  0.0000E+00  0.2000E+01
    -26.166  0.0000E+00  0.2000E+01
    -26.043  0.0000E+00  0.2000E+01
    -25.919  0.0000E+00  0.2000E+01
    -25.795  0.0000E+00  0.2000E+01
    -25.672  0.0000E+00  0.2000E+01
    -25.548  0.0000E+00  0.2000E+01
    -25.424  0.0000E+00  0.2000E+01
    -25.301  0.0000E+00  0.2000E+01
    -25.177  0.0000E+00  0.2000E+01
    -25.054  0.0000E+00  0.2000E+01
    -24.930  0.0000E+00  0.2000E+01
    -24.806  0.0000E+00  0.2000E+01
    -24.683  0.0000E+00  0.2000E+01
    -24.559  0.0000E+00  0.2000E+01
    -24.435  0.0000E+00  0.2000E+01
    -24.312  0.0000E+00  0.2000E+01
    -24.188  0.0000E+00  0.2000E+01
    -24.065  0.0000E+00  0.2000E+01
    -23.941  0.0000E+00  0.2000E+01
    -23.817  0.0000E+00  0.2000E+01
    -23.694  0.0000E+00  0.2000E+01
    -23.570  0.0000E+00  0.2000E+01
    -23.446  0.0000E+00  0.2000E+01
    -23.323  0.0000E+00  0.2000E+01
    -23.199  0.0000E+00  0.2000E+01
    -23.075  0.0000E+00  0.2000E+01
    -22.952  0.0000E+00  0.2000E+01
    -22.828  0.0000E+00  0.2000E+01
    -22.705  0.0000E+00  0.2000E+01
    -22.581  0.0000E+00  0.2000E+01
    -22.457  0.0000E+00  0.2000E+01
    -22.334  0.0000E+00  0.2000E+01
    -22.210  0.0000E+00  0.2000E+01
    -22.086  0.0000E+00  0.2000E+01
    -21.963  0.0000E+00  0.2000E+01
    -21.839  0.0000E+00  0.2000E+01
    -21.715  0.0000E+00  0.2000E+01
    -21.592  0.0000E+00  0.2000E+01
    -21.468  0.0000E+00  0.2000E+01
    -21.345  0.0000E+00  0.2000E+01
    -21.221  0.0000E+00  0.2000E+01
    -21.097  0.0000E+00  0.2000E+01
    -20.974  0.0000E+00  0.2000E+01
    -20.850  0.0000E+00  0.2000E+01
    -20.726  0.0000E+00  0.2000E+01
    -20.603  0.0000E+00  0.2000E+01
    -20.479  0.0000E+00  0.2000E+01
    -20.356  0.0000E+00  0.2000E+01
    -20.232  0.0000E+00  0.2000E+01
    -20.108  0.0000E+00  0.2000E+01
    -19.985  0.0000E+00  0.2000E+01
    -19.861  0.0000E+00  0.2000E+01
    -19.737  0.0000E+00  0.2000E+01
    -19.614  0.0000E+00  0.2000E+01
    -19.490  0.0000E+00  0.2000E+01
    -19.366  0.0000E+00  0.2000E+01
    -19.243  0.0000E+00  0.2000E+01
    -19.119  0.0000E+00  0.2000E+01
    -18.996  0.0000E+00  0.2000E+01
    -18.872  0.0000E+00  0.2000E+01
    -18.748  0.0000E+00  0.2000E+01
    -18.625  0.0000E+00  0.2000E+01
    -18.501  0.0000E+00  0.2000E+01
    -18.377  0.0000E+00  0.2000E+01
    -18.254  0.0000E+00  0.2000E+01
    -18.130  0.0000E+00  0.2000E+01
    -18.006  0.0000E+00  0.2000E+01
    -17.883  0.0000E+00  0.2000E+01
    -17.759  0.0000E+00  0.2000E+01
    -17.636  0.0000E+00  0.2000E+01
    -17.512  0.0000E+00  0.2000E+01
    -17.388  0.0000E+00  0.2000E+01
    -17.265  0.0000E+00  0.2000E+01
    -17.141  0.0000E+00  0.2000E+01
    -17.017  0.0000E+00  0.2000E+01
    -16.894  0.0000E+00  0.2000E+01
    -16.770  0.0000E+00  0.2000E+01
    -16.646  0.0000E+00  0.2000E+01
    -16.523  0.0000E+00  0.2000E+01
    -16.399  0.0000E+00  0.2000E+01
    -16.276  0.0000E+00  0.2000E+01
    -16.152  0.0000E+00  0.2000E+01
    -16.028  0.0000E+00  0.2000E+01
    -15.905  0.0000E+00  0.2000E+01
    -15.781  0.0000E+00  0.2000E+01
    -15.657  0.0000E+00  0.2000E+01
    -15.534  0.0000E+00  0.2000E+01
    -15.410  0.0000E+00  0.2000E+01
    -15.287  0.0000E+00  0.2000E+01
    -15.163  0.0000E+00  0.2000E+01
    -15.039  0.0000E+00  0.2000E+01
    -14.916  0.2694E-14  0.2000E+01
    -14.792  0.2918E-11  0.2000E+01
    -14.668  0.1294E-08  0.2000E+01
    -14.545  0.2714E-06  0.2000E+01
    -14.421  0.2700E-04  0.2000E+01
    -14.297  0.1280E-02  0.2000E+01
    -14.174  0.2904E-01  0.2004E+01
    -14.050  0.3171E+00  0.2043E+01
    -13.927  0.1676E+01  0.2250E+01
    -13.803  0.4308E+01  0.2783E+01
    -13.679  0.5401E+01  0.3451E+01
    -13.556  0.3305E+01  0.3859E+01
    -13.432  0.9858E+00  0.3981E+01
    -13.308  0.1427E+00  0.3999E+01
    -13.185  0.9983E-02  0.4000E+01
    -13.061  0.3353E-03  0.4000E+01
    -12.937  0.5383E-05  0.4000E+01
    -12.814  0.4109E-07  0.4000E+01
    -12.690  0.1486E-09  0.4000E+01
    -12.567  0.3682E-12  0.4000E+01
    -12.443  0.7769E-10  0.4000E+01
    -12.319  0.2534E-07  0.4000E+01
    -12.196  0.3914E-05  0.4000E+01
    -12.072  0.2872E-03  0.4000E+01
    -11.948  0.1006E-01  0.4001E+01
    -11.825  0.1690E+00  0.4022E+01
    -11.701  0.1370E+01  0.4192E+01
    -11.578  0.5385E+01  0.4857E+01
    -11.454  0.1031E+02  0.6132E+01
    -11.330  0.9633E+01  0.7323E+01
    -11.207  0.4392E+01  0.7866E+01
    -11.083  0.9747E+00  0.7986E+01
    -10.959  0.1048E+00  0.7999E+01
    -10.836  0.5430E-02  0.8000E+01
    -10.712  0.1349E-03  0.8000E+01
    -10.588  0.1597E-05  0.8000E+01
    -10.465  0.8979E-08  0.8000E+01
    -10.341  0.2389E-10  0.8000E+01
    -10.218  0.2874E-13  0.8000E+01
    -10.094  0.0000E+00  0.8000E+01
     -9.970  0.0000E+00  0.8000E+01
     -9.847  0.1652E-12  0.8000E+01
     -9.723  0.1016E-09  0.8000E+01
     -9.599  0.2944E-07  0.8000E+01
     -9.476  0.4043E-05  0.8000E+01
     -9.352  0.2640E-03  0.8000E+01
     -9.228  0.8232E-02  0.8001E+01
     -9.105  0.1233E+00  0.8016E+01
     -8.981  0.8914E+00  0.8126E+01
     -8.858  0.3128E+01  0.8513E+01
     -8.734  0.5348E+01  0.9174E+01
     -8.610  0.4464E+01  0.9726E+01
     -8.487  0.1818E+01  0.9951E+01
     -8.363  0.3600E+00  0.9996E+01
     -8.239  0.3451E-01  0.1000E+02
     -8.116  0.1593E-02  0.1000E+02
     -7.992  0.3522E-04  0.1000E+02
     -7.868  0.3711E-06  0.1000E+02
     -7.745  0.1855E-08  0.1000E+02
     -7.621  0.4386E-11  0.1000E+02
     -7.498  0.3592E-14  0.1000E+02
     -7.374  0.0000E+00  0.1000E+02
     -7.250  0.0000E+00  0.1000E+02
     -7.127  0.0000E+00  0.1000E+02
     -7.003  0.0000E+00  0.1000E+02
     -6.879  0.0000E+00  0.1000E+02
     -6.756  0.0000E+00  0.1000E+02
     -6.632  0.0000E+00  0.1000E+02
     -6.509  0.0000E+00  0.1000E+02
     -6.385  0.0000E+00  0.1000E+02
     -6.261  0.0000E+00  0.1000E+02
     -6.138  0.0000E+00  0.1000E+02
     -6.014  0.0000E+00  0.1000E+02
     -5.890  0.0000E+00  0.1000E+02
     -5.767  0.0000E+00  0.1000E+02
     -5.643  0.0000E+00  0.1000E+02
     -5.519  0.0000E+00  0.1000E+02
     -5.396  0.0000E+00  0.1000E+02
     -5.272  0.0000E+00  0.1000E+02
     -5.149  0.0000E+00  0.1000E+02
     -5.025  0.0000E+00  0.1000E+02
     -4.901  0.0000E+00  0.1000E+02
     -4.778  0.0000E+00  0.1000E+02
     -4.654  0.0000E+00  0.1000E+02
     -4.530  0.0000E+00  0.1000E+02
     -4.407  0.0000E+00  0.1000E+02
     -4.283  0.0000E+00  0.1000E+02
     -4.159  0.0000E+00  0.1000E+02
     -4.036  0.0000E+00  0.1000E+02
     -3.912  0.0000E+00  0.1000E+02
     -3.789  0.0000E+00  0.1000E+02
     -3.665  0.0000E+00  0.1000E+02
     -3.541  0.0000E+00  0.1000E+02
     -3.418  0.0000E+00  0.1000E+02
     -3.294  0.0000E+00  0.1000E+02
     -3.170  0.0000E+00  0.1000E+02
     -3.047  0.0000E+00  0.1000E+02
     -2.923  0.5334E-12  0.1000E+02
     -2.800  0.3105E-09  0.1000E+02
     -2.676  0.8538E-07  0.1000E+02
     -2.552  0.1112E-04  0.1000E+02
     -2.429  0.6893E-03  0.1000E+02
     -2.305  0.2041E-01  0.1000E+02
     -2.181  0.2903E+00  0.1004E+02
     -2.058  0.1994E+01  0.1029E+02
     -1.934  0.6652E+01  0.1111E+02
     -1.810  0.1081E+02  0.1244E+02
     -1.687  0.8579E+01  0.1350E+02
     -1.563  0.3321E+01  0.1392E+02
     -1.440  0.6250E+00  0.1399E+02
     -1.316  0.5692E-01  0.1400E+02
     -1.192  0.2495E-02  0.1400E+02
     -1.069  0.5241E-04  0.1400E+02
     -0.945  0.6468E-05  0.1400E+02
     -0.821  0.3643E-03  0.1400E+02
     -0.698  0.1067E-01  0.1400E+02
     -0.574  0.1501E+00  0.1402E+02
     -0.450  0.1020E+01  0.1415E+02
     -0.327  0.3367E+01  0.1456E+02
     -0.203  0.5416E+01  0.1523E+02
     -0.080  0.4252E+01  0.1576E+02
      0.044  0.1628E+01  0.1596E+02
      0.168  0.3032E+00  0.1600E+02
      0.291  0.2732E-01  0.1600E+02
      0.415  0.1185E-02  0.1600E+02
      0.539  0.2459E-04  0.1600E+02
      0.662  0.2431E-06  0.1600E+02
      0.786  0.1616E-08  0.1600E+02
      0.910  0.1136E-06  0.1600E+02
      1.033  0.1288E-04  0.1600E+02
      1.157  0.6972E-03  0.1600E+02
      1.280  0.1822E-01  0.1600E+02
      1.404  0.2348E+00  0.1603E+02
      1.528  0.1564E+01  0.1622E+02
      1.651  0.5912E+01  0.1696E+02
      1.775  0.1424E+02  0.1872E+02
      1.899  0.2256E+02  0.2151E+02
      2.022  0.2157E+02  0.2417E+02
      2.146  0.1143E+02  0.2559E+02
      2.269  0.4058E+01  0.2609E+02
      2.393  0.3746E+01  0.2655E+02
      2.517  0.5435E+01  0.2722E+02
      2.640  0.4289E+01  0.2775E+02
      2.764  0.1659E+01  0.2796E+02
      2.888  0.3120E+00  0.2800E+02
      3.011  0.2842E-01  0.2800E+02
      3.135  0.1858E-02  0.2800E+02
      3.259  0.1622E-01  0.2800E+02
      3.382  0.2056E+00  0.2803E+02
      3.506  0.1262E+01  0.2818E+02
      3.629  0.3767E+01  0.2865E+02
      3.753  0.5569E+01  0.2934E+02
      3.877  0.4667E+01  0.2991E+02
      4.000  0.4260E+01  0.3044E+02
      4.124  0.5492E+01  0.3112E+02
      4.248  0.4658E+01  0.3170E+02
      4.371  0.1995E+01  0.3194E+02
      4.495  0.4170E+00  0.3199E+02
      4.619  0.4224E-01  0.3200E+02
      4.742  0.2060E-02  0.3200E+02
      4.866  0.4815E-04  0.3200E+02
      4.989  0.5365E-06  0.3200E+02
      5.113  0.2837E-08  0.3200E+02
      5.237  0.7098E-11  0.3200E+02
      5.360  0.7184E-14  0.3200E+02
      5.484  0.0000E+00  0.3200E+02
      5.608  0.0000E+00  0.3200E+02
      5.731  0.0000E+00  0.3200E+02
      5.855  0.0000E+00  0.3200E+02
      5.979  0.0000E+00  0.3200E+02
      6.102  0.0000E+00  0.3200E+02
      6.10213817    -30.98802312  301     -7.74388949      1.00000000
    -30.988  0.0000E+00  0.0000E+00  0.0000E+00  0.0000E+00  0.0000E+00  0.0000E+00  0.0000E+00  0.0000E+00  0.0000E+00
    -30.864  0.0000E+00  0.0000E+00  0.0000E+00  0.0000E+00  0.0000E+00  0.0000E+00  0.0000E+00  0.0000E+00  0.0000E+00
    -30.741  0.0000E+00  0.0000E+00  0.0000E+00  0.0000E+00  0.0000E+00  0.0000E+00  0.0000E+00  0.0000E+00  0.0000E+00
    -30.617  0.0000E+00  0.0000E+00  0.0000E+00  0.0000E+00  0.0000E+00  0.0000E+00  0.0000E+00  0.0000E+00  0.0000E+00
    -30.493  0.0000E+00  0.0000E+00  0.0000E+00  0.0000E+00  0.0000E+00  0.0000E+00  0.0000E+00  0.0000E+00  0.0000E+00
    -30.370  0.0000E+00  0.0000E+00  0.0000E+00  0.0000E+00  0.0000E+00  0.0000E+00  0.0000E+00  0.0000E+00  0.0000E+00
    -30.246  0.0000E+00  0.0000E+00  0.0000E+00  0.0000E+00  0.0000E+00  0.0000E+00  0.0000E+00  0.0000E+00  0.0000E+00
    -30.123  0.5318E-14  0.1050E-30  0.7961E-15  0.1137E-30  0.0000E+00  0.0000E+00  0.0000E+00  0.0000E+00  0.0000E+00
    -29.999  0.4669E-11  0.9215E-28  0.6990E-12  0.9979E-28  0.0000E+00  0.0000E+00  0.0000E+00  0.0000E+00  0.0000E+00
    -29.875  0.1867E-08  0.3684E-25  0.2794E-09  0.3989E-25  0.0000E+00  0.0000E+00  0.0000E+00  0.0000E+00  0.0000E+00
    -29.752  0.3530E-06  0.6967E-23  0.5285E-07  0.7544E-23  0.0000E+00  0.0000E+00  0.0000E+00  0.0000E+00  0.0000E+00
    -29.628  0.3169E-04  0.6254E-21  0.4743E-05  0.6772E-21  0.0000E+00  0.0000E+00  0.0000E+00  0.0000E+00  0.0000E+00
    -29.504  0.1356E-02  0.2676E-19  0.2030E-03  0.2898E-19  0.0000E+00  0.0000E+00  0.0000E+00  0.0000E+00  0.0000E+00
    -29.381  0.2779E-01  0.5485E-18  0.4160E-02  0.5939E-18  0.0000E+00  0.0000E+00  0.0000E+00  0.0000E+00  0.0000E+00
    -29.257  0.2744E+00  0.5416E-17  0.4108E-01  0.5864E-17  0.0000E+00  0.0000E+00  0.0000E+00  0.0000E+00  0.0000E+00
    -29.134  0.1312E+01  0.2590E-16  0.1964E+00  0.2804E-16  0.0000E+00  0.0000E+00  0.0000E+00  0.0000E+00  0.0000E+00
    -29.010  0.3053E+01  0.6025E-16  0.4570E+00  0.6524E-16  0.0000E+00  0.0000E+00  0.0000E+00  0.0000E+00  0.0000E+00
    -28.886  0.3465E+01  0.6839E-16  0.5188E+00  0.7406E-16  0.0000E+00  0.0000E+00  0.0000E+00  0.0000E+00  0.0000E+00
    -28.763  0.1920E+01  0.3790E-16  0.2874E+00  0.4104E-16  0.0000E+00  0.0000E+00  0.0000E+00  0.0000E+00  0.0000E+00
    -28.639  0.5183E+00  0.1023E-16  0.7759E-01  0.1108E-16  0.0000E+00  0.0000E+00  0.0000E+00  0.0000E+00  0.0000E+00
    -28.515  0.6787E-01  0.1339E-17  0.1016E-01  0.1450E-17  0.0000E+00  0.0000E+00  0.0000E+00  0.0000E+00  0.0000E+00
    -28.392  0.4290E-02  0.8466E-19  0.6421E-03  0.9167E-19  0.0000E+00  0.0000E+00  0.0000E+00  0.0000E+00  0.0000E+00
    -28.268  0.1301E-03  0.2568E-20  0.1948E-04  0.2781E-20  0.0000E+00  0.0000E+00  0.0000E+00  0.0000E+00  0.0000E+00
    -28.144  0.1885E-05  0.3720E-22  0.2822E-06  0.4028E-22  0.0000E+00  0.0000E+00  0.0000E+00  0.0000E+00  0.0000E+00
    -28.021  0.1298E-07  0.2561E-24  0.1943E-08  0.2773E-24  0.0000E+00  0.0000E+00  0.0000E+00  0.0000E+00  0.0000E+00
    -27.897  0.4231E-10  0.8351E-27  0.6334E-11  0.9043E-27  0.0000E+00  0.0000E+00  0.0000E+00  0.0000E+00  0.0000E+00
    -27.774  0.6500E-13  0.1283E-29  0.9730E-14  0.1389E-29  0.0000E+00  0.0000E+00  0.0000E+00  0.0000E+00  0.0000E+00
    -27.650  0.0000E+00  0.0000E+00  0.0000E+00  0.0000E+00  0.0000E+00  0.0000E+00  0.0000E+00  0.0000E+00  0.0000E+00
    -27.526  0.0000E+00  0.0000E+00  0.0000E+00  0.0000E+00  0.0000E+00  0.0000E+00  0.0000E+00  0.0000E+00  0.0000E+00
    -27.403  0.0000E+00  0.0000E+00  0.0000E+00  0.0000E+00  0.0000E+00  0.0000E+00  0.0000E+00  0.0000E+00  0.0000E+00
    -27.279  0.0000E+00  0.0000E+00  0.0000E+00  0.0000E+00  0.0000E+00  0.0000E+00  0.0000E+00  0.0000E+00  0.0000E+00
    -27.155  0.0000E+00  0.0000E+00  0.0000E+00  0.0000E+00  0.0000E+00  0.0000E+00  0.0000E+00  0.0000E+00  0.0000E+00
    -27.032  0.0000E+00  0.0000E+00  0.0000E+00  0.0000E+00  0.0000E+00  0.0000E+00  0.0000E+00  0.0000E+00  0.0000E+00
    -26.908  0.0000E+00  0.0000E+00  0.0000E+00  0.0000E+00  0.0000E+00  0.0000E+00  0.0000E+00  0.0000E+00  0.0000E+00
    -26.784  0.0000E+00  0.0000E+00  0.0000E+00  0.0000E+00  0.0000E+00  0.0000E+00  0.0000E+00  0.0000E+00  0.0000E+00
    -26.661  0.0000E+00  0.0000E+00  0.0000E+00  0.0000E+00  0.0000E+00  0.0000E+00  0.0000E+00  0.0000E+00  0.0000E+00
    -26.537  0.0000E+00  0.0000E+00  0.0000E+00  0.0000E+00  0.0000E+00  0.0000E+00  0.0000E+00  0.0000E+00  0.0000E+00
    -26.414  0.0000E+00  0.0000E+00  0.0000E+00  0.0000E+00  0.0000E+00  0.0000E+00  0.0000E+00  0.0000E+00  0.0000E+00
    -26.290  0.0000E+00  0.0000E+00  0.0000E+00  0.0000E+00  0.0000E+00  0.0000E+00  0.0000E+00  0.0000E+00  0.0000E+00
    -26.166  0.0000E+00  0.0000E+00  0.0000E+00  0.0000E+00  0.0000E+00  0.0000E+00  0.0000E+00  0.0000E+00  0.0000E+00
    -26.043  0.0000E+00  0.0000E+00  0.0000E+00  0.0000E+00  0.0000E+00  0.0000E+00  0.0000E+00  0.0000E+00  0.0000E+00
    -25.919  0.0000E+00  0.0000E+00  0.0000E+00  0.0000E+00  0.0000E+00  0.0000E+00  0.0000E+00  0.0000E+00  0.0000E+00
    -25.795  0.0000E+00  0.0000E+00  0.0000E+00  0.0000E+00  0.0000E+00  0.0000E+00  0.0000E+00  0.0000E+00  0.0000E+00
    -25.672  0.0000E+00  0.0000E+00  0.0000E+00  0.0000E+00  0.0000E+00  0.0000E+00  0.0000E+00  0.0000E+00  0.0000E+00
    -25.548  0.0000E+00  0.0000E+00  0.0000E+00  0.0000E+00  0.0000E+00  0.0000E+00  0.0000E+00  0.0000E+00  0.0000E+00
    -25.424  0.0000E+00  0.0000E+00  0.0000E+00  0.0000E+00  0.0000E+00  0.0000E+00  0.0000E+00  0.0000E+00  0.0000E+00
    -25.301  0.0000E+00  0.0000E+00  0.0000E+00  0.0000E+00  0.0000E+00  0.0000E+00  0.0000E+00  0.0000E+00  0.0000E+00
    -25.177  0.0000E+00  0.0000E+00  0.0000E+00  0.0000E+00  0.0000E+00  0.0000E+00  0.0000E+00  0.0000E+00  0.0000E+00
    -25.054  0.0000E+00  0.0000E+00  0.0000E+00  0.0000E+00  0.0000E+00  0.0000E+00  0.0000E+00  0.0000E+00  0.0000E+00
    -24.930  0.0000E+00  0.0000E+00  0.0000E+00  0.0000E+00  0.0000E+00  0.0000E+00  0.0000E+00  0.0000E+00  0.0000E+00
    -24.806  0.0000E+00  0.0000E+00  0.0000E+00  0.0000E+00  0.0000E+00  0.0000E+00  0.0000E+00  0.0000E+00  0.0000E+00
    -24.683  0.0000E+00  0.0000E+00  0.0000E+00  0.0000E+00  0.0000E+00  0.0000E+00  0.0000E+00  0.0000E+00  0.0000E+00
    -24.559  0.0000E+00  0.0000E+00  0.0000E+00  0.0000E+00  0.0000E+00  0.0000E+00  0.0000E+00  0.0000E+00  0.0000E+00
    -24.435  0.0000E+00  0.0000E+00  0.0000E+00  0.0000E+00  0.0000E+00  0.0000E+00  0.0000E+00  0.0000E+00  0.0000E+00
    -24.312  0.0000E+00  0.0000E+00  0.0000E+00  0.0000E+00  0.0000E+00  0.0000E+00  0.0000E+00  0.0000E+00  0.0000E+00
    -24.188  0.0000E+00  0.0000E+00  0.0000E+00  0.0000E+00  0.0000E+00  0.0000E+00  0.0000E+00  0.0000E+00  0.0000E+00
    -24.065  0.0000E+00  0.0000E+00  0.0000E+00  0.0000E+00  0.0000E+00  0.0000E+00  0.0000E+00  0.0000E+00  0.0000E+00
    -23.941  0.0000E+00  0.0000E+00  0.0000E+00  0.0000E+00  0.0000E+00  0.0000E+00  0.0000E+00  0.0000E+00  0.0000E+00
    -23.817  0.0000E+00  0.0000E+00  0.0000E+00  0.0000E+00  0.0000E+00  0.0000E+00  0.0000E+00  0.0000E+00  0.0000E+00
    -23.694  0.0000E+00  0.0000E+00  0.0000E+00  0.0000E+00  0.0000E+00  0.0000E+00  0.0000E+00  0.0000E+00  0.0000E+00
    -23.570  0.0000E+00  0.0000E+00  0.0000E+00  0.0000E+00  0.0000E+00  0.0000E+00  0.0000E+00  0.0000E+00  0.0000E+00
    -23.446  0.0000E+00  0.0000E+00  0.0000E+00  0.0000E+00  0.0000E+00  0.0000E+00  0.0000E+00  0.0000E+00  0.0000E+00
    -23.323  0.0000E+00  0.0000E+00  0.0000E+00  0.0000E+00  0.0000E+00  0.0000E+00  0.0000E+00  0.0000E+00  0.0000E+00
    -23.199  0.0000E+00  0.0000E+00  0.0000E+00  0.0000E+00  0.0000E+00  0.0000E+00  0.0000E+00  0.0000E+00  0.0000E+00
    -23.075  0.0000E+00  0.0000E+00  0.0000E+00  0.0000E+00  0.0000E+00  0.0000E+00  0.0000E+00  0.0000E+00  0.0000E+00
    -22.952  0.0000E+00  0.0000E+00  0.0000E+00  0.0000E+00  0.0000E+00  0.0000E+00  0.0000E+00  0.0000E+00  0.0000E+00
    -22.828  0.0000E+00  0.0000E+00  0.0000E+00  0.0000E+00  0.0000E+00  0.0000E+00  0.0000E+00  0.0000E+00  0.0000E+00
    -22.705  0.0000E+00  0.0000E+00  0.0000E+00  0.0000E+00  0.0000E+00  0.0000E+00  0.0000E+00  0.0000E+00  0.0000E+00
    -22.581  0.0000E+00  0.0000E+00  0.0000E+00  0.0000E+00  0.0000E+00  0.0000E+00  0.0000E+00  0.0000E+00  0.0000E+00
    -22.457  0.0000E+00  0.0000E+00  0.0000E+00  0.0000E+00  0.0000E+00  0.0000E+00  0.0000E+00  0.0000E+00  0.0000E+00
    -22.334  0.0000E+00  0.0000E+00  0.0000E+00  0.0000E+00  0.0000E+00  0.0000E+00  0.0000E+00  0.0000E+00  0.0000E+00
    -22.210  0.0000E+00  0.0000E+00  0.0000E+00  0.0000E+00  0.0000E+00  0.0000E+00  0.0000E+00  0.0000E+00  0.0000E+00
    -22.086  0.0000E+00  0.0000E+00  0.0000E+00  0.0000E+00  0.0000E+00  0.0000E+00  0.0000E+00  0.0000E+00  0.0000E+00
    -21.963  0.0000E+00  0.0000E+00  0.0000E+00  0.0000E+00  0.0000E+00  0.0000E+00  0.0000E+00  0.0000E+00  0.0000E+00
    -21.839  0.0000E+00  0.0000E+00  0.0000E+00  0.0000E+00  0.0000E+00  0.0000E+00  0.0000E+00  0.0000E+00  0.0000E+00
    -21.715  0.0000E+00  0.0000E+00  0.0000E+00  0.0000E+00  0.0000E+00  0.0000E+00  0.0000E+00  0.0000E+00  0.0000E+00
    -21.592  0.0000E+00  0.0000E+00  0.0000E+00  0.0000E+00  0.0000E+00  0.0000E+00  0.0000E+00  0.0000E+00  0.0000E+00
    -21.468  0.0000E+00  0.0000E+00  0.0000E+00  0.0000E+00  0.0000E+00  0.0000E+00  0.0000E+00  0.0000E+00  0.0000E+00
    -21.345  0.0000E+00  0.0000E+00  0.0000E+00  0.0000E+00  0.0000E+00  0.0000E+00  0.0000E+00  0.0000E+00  0.0000E+00
    -21.221  0.0000E+00  0.0000E+00  0.0000E+00  0.0000E+00  0.0000E+00  0.0000E+00  0.0000E+00  0.0000E+00  0.0000E+00
    -21.097  0.0000E+00  0.0000E+00  0.0000E+00  0.0000E+00  0.0000E+00  0.0000E+00  0.0000E+00  0.0000E+00  0.0000E+00
    -20.974  0.0000E+00  0.0000E+00  0.0000E+00  0.0000E+00  0.0000E+00  0.0000E+00  0.0000E+00  0.0000E+00  0.0000E+00
    -20.850  0.0000E+00  0.0000E+00  0.0000E+00  0.0000E+00  0.0000E+00  0.0000E+00  0.0000E+00  0.0000E+00  0.0000E+00
    -20.726  0.0000E+00  0.0000E+00  0.0000E+00  0.0000E+00  0.0000E+00  0.0000E+00  0.0000E+00  0.0000E+00  0.0000E+00
    -20.603  0.0000E+00  0.0000E+00  0.0000E+00  0.0000E+00  0.0000E+00  0.0000E+00  0.0000E+00  0.0000E+00  0.0000E+00
    -20.479  0.0000E+00  0.0000E+00  0.0000E+00  0.0000E+00  0.0000E+00  0.0000E+00  0.0000E+00  0.0000E+00  0.0000E+00
    -20.356  0.0000E+00  0.0000E+00  0.0000E+00  0.0000E+00  0.0000E+00  0.0000E+00  0.0000E+00  0.0000E+00  0.0000E+00
    -20.232  0.0000E+00  0.0000E+00  0.0000E+00  0.0000E+00  0.0000E+00  0.0000E+00  0.0000E+00  0.0000E+00  0.0000E+00
    -20.108  0.0000E+00  0.0000E+00  0.0000E+00  0.0000E+00  0.0000E+00  0.0000E+00  0.0000E+00  0.0000E+00  0.0000E+00
    -19.985  0.0000E+00  0.0000E+00  0.0000E+00  0.0000E+00  0.0000E+00  0.0000E+00  0.0000E+00  0.0000E+00  0.0000E+00
    -19.861  0.0000E+00  0.0000E+00  0.0000E+00  0.0000E+00  0.0000E+00  0.0000E+00  0.0000E+00  0.0000E+00  0.0000E+00
    -19.737  0.0000E+00  0.0000E+00  0.0000E+00  0.0000E+00  0.0000E+00  0.0000E+00  0.0000E+00  0.0000E+00  0.0000E+00
    -19.614  0.0000E+00  0.0000E+00  0.0000E+00  0.0000E+00  0.0000E+00  0.0000E+00  0.0000E+00  0.0000E+00  0.0000E+00
    -19.490  0.0000E+00  0.0000E+00  0.0000E+00  0.0000E+00  0.0000E+00  0.0000E+00  0.0000E+00  0.0000E+00  0.0000E+00
    -19.366  0.0000E+00  0.0000E+00  0.0000E+00  0.0000E+00  0.0000E+00  0.0000E+00  0.0000E+00  0.0000E+00  0.0000E+00
    -19.243  0.0000E+00  0.0000E+00  0.0000E+00  0.0000E+00  0.0000E+00  0.0000E+00  0.0000E+00  0.0000E+00  0.0000E+00
    -19.119  0.0000E+00  0.0000E+00  0.0000E+00  0.0000E+00  0.0000E+00  0.0000E+00  0.0000E+00  0.0000E+00  0.0000E+00
    -18.996  0.0000E+00  0.0000E+00  0.0000E+00  0.0000E+00  0.0000E+00  0.0000E+00  0.0000E+00  0.0000E+00  0.0000E+00
    -18.872  0.0000E+00  0.0000E+00  0.0000E+00  0.0000E+00  0.0000E+00  0.0000E+00  0.0000E+00  0.0000E+00  0.0000E+00
    -18.748  0.0000E+00  0.0000E+00  0.0000E+00  0.0000E+00  0.0000E+00  0.0000E+00  0.0000E+00  0.0000E+00  0.0000E+00
    -18.625  0.0000E+00  0.0000E+00  0.0000E+00  0.0000E+00  0.0000E+00  0.0000E+00  0.0000E+00  0.0000E+00  0.0000E+00
    -18.501  0.0000E+00  0.0000E+00  0.0000E+00  0.0000E+00  0.0000E+00  0.0000E+00  0.0000E+00  0.0000E+00  0.0000E+00
    -18.377  0.0000E+00  0.0000E+00  0.0000E+00  0.0000E+00  0.0000E+00  0.0000E+00  0.0000E+00  0.0000E+00  0.0000E+00
    -18.254  0.0000E+00  0.0000E+00  0.0000E+00  0.0000E+00  0.0000E+00  0.0000E+00  0.0000E+00  0.0000E+00  0.0000E+00
    -18.130  0.0000E+00  0.0000E+00  0.0000E+00  0.0000E+00  0.0000E+00  0.0000E+00  0.0000E+00  0.0000E+00  0.0000E+00
    -18.006  0.0000E+00  0.0000E+00  0.0000E+00  0.0000E+00  0.0000E+00  0.0000E+00  0.0000E+00  0.0000E+00  0.0000E+00
    -17.883  0.0000E+00  0.0000E+00  0.0000E+00  0.0000E+00  0.0000E+00  0.0000E+00  0.0000E+00  0.0000E+00  0.0000E+00
    -17.759  0.0000E+00  0.0000E+00  0.0000E+00  0.0000E+00  0.0000E+00  0.0000E+00  0.0000E+00  0.0000E+00  0.0000E+00
    -17.636  0.0000E+00  0.0000E+00  0.0000E+00  0.0000E+00  0.0000E+00  0.0000E+00  0.0000E+00  0.0000E+00  0.0000E+00
    -17.512  0.0000E+00  0.0000E+00  0.0000E+00  0.0000E+00  0.0000E+00  0.0000E+00  0.0000E+00  0.0000E+00  0.0000E+00
    -17.388  0.0000E+00  0.0000E+00  0.0000E+00  0.0000E+00  0.0000E+00  0.0000E+00  0.0000E+00  0.0000E+00  0.0000E+00
    -17.265  0.0000E+00  0.0000E+00  0.0000E+00  0.0000E+00  0.0000E+00  0.0000E+00  0.0000E+00  0.0000E+00  0.0000E+00
    -17.141  0.0000E+00  0.0000E+00  0.0000E+00  0.0000E+00  0.0000E+00  0.0000E+00  0.0000E+00  0.0000E+00  0.0000E+00
    -17.017  0.0000E+00  0.0000E+00  0.0000E+00  0.0000E+00  0.0000E+00  0.0000E+00  0.0000E+00  0.0000E+00  0.0000E+00
    -16.894  0.0000E+00  0.0000E+00  0.0000E+00  0.0000E+00  0.0000E+00  0.0000E+00  0.0000E+00  0.0000E+00  0.0000E+00
    -16.770  0.0000E+00  0.0000E+00  0.0000E+00  0.0000E+00  0.0000E+00  0.0000E+00  0.0000E+00  0.0000E+00  0.0000E+00
    -16.646  0.0000E+00  0.0000E+00  0.0000E+00  0.0000E+00  0.0000E+00  0.0000E+00  0.0000E+00  0.0000E+00  0.0000E+00
    -16.523  0.0000E+00  0.0000E+00  0.0000E+00  0.0000E+00  0.0000E+00  0.0000E+00  0.0000E+00  0.0000E+00  0.0000E+00
    -16.399  0.0000E+00  0.0000E+00  0.0000E+00  0.0000E+00  0.0000E+00  0.0000E+00  0.0000E+00  0.0000E+00  0.0000E+00
    -16.276  0.0000E+00  0.0000E+00  0.0000E+00  0.0000E+00  0.0000E+00  0.0000E+00  0.0000E+00  0.0000E+00  0.0000E+00
    -16.152  0.0000E+00  0.0000E+00  0.0000E+00  0.0000E+00  0.0000E+00  0.0000E+00  0.0000E+00  0.0000E+00  0.0000E+00
    -16.028  0.0000E+00  0.0000E+00  0.0000E+00  0.0000E+00  0.0000E+00  0.0000E+00  0.0000E+00  0.0000E+00  0.0000E+00
    -15.905  0.0000E+00  0.0000E+00  0.0000E+00  0.0000E+00  0.0000E+00  0.0000E+00  0.0000E+00  0.0000E+00  0.0000E+00
    -15.781  0.0000E+00  0.0000E+00  0.0000E+00  0.0000E+00  0.0000E+00  0.0000E+00  0.0000E+00  0.0000E+00  0.0000E+00
    -15.657  0.0000E+00  0.0000E+00  0.0000E+00  0.0000E+00  0.0000E+00  0.0000E+00  0.0000E+00  0.0000E+00  0.0000E+00
    -15.534  0.0000E+00  0.0000E+00  0.0000E+00  0.0000E+00  0.0000E+00  0.0000E+00  0.0000E+00  0.0000E+00  0.0000E+00
    -15.410  0.0000E+00  0.0000E+00  0.0000E+00  0.0000E+00  0.0000E+00  0.0000E+00  0.0000E+00  0.0000E+00  0.0000E+00
    -15.287  0.0000E+00  0.0000E+00  0.0000E+00  0.0000E+00  0.0000E+00  0.0000E+00  0.0000E+00  0.0000E+00  0.0000E+00
    -15.163  0.0000E+00  0.0000E+00  0.0000E+00  0.0000E+00  0.0000E+00  0.0000E+00  0.0000E+00  0.0000E+00  0.0000E+00
    -15.039  0.0000E+00  0.0000E+00  0.0000E+00  0.0000E+00  0.0000E+00  0.0000E+00  0.0000E+00  0.0000E+00  0.0000E+00
    -14.916  0.4531E-15  0.5099E-30  0.1209E-14  0.3610E-30  0.0000E+00  0.0000E+00  0.0000E+00  0.0000E+00  0.0000E+00
    -14.792  0.4907E-12  0.5523E-27  0.1309E-11  0.3909E-27  0.0000E+00  0.0000E+00  0.0000E+00  0.0000E+00  0.0000E+00
    -14.668  0.2176E-09  0.2449E-24  0.5806E-09  0.1734E-24  0.0000E+00  0.0000E+00  0.0000E+00  0.0000E+00  0.0000E+00
    -14.545  0.4564E-07  0.5137E-22  0.1218E-06  0.3636E-22  0.0000E+00  0.0000E+00  0.0000E+00  0.0000E+00  0.0000E+00
    -14.421  0.4541E-05  0.5111E-20  0.1212E-04  0.3618E-20  0.0000E+00  0.0000E+00  0.0000E+00  0.0000E+00  0.0000E+00
    -14.297  0.2152E-03  0.2423E-18  0.5742E-03  0.1715E-18  0.0000E+00  0.0000E+00  0.0000E+00  0.0000E+00  0.0000E+00
    -14.174  0.4884E-02  0.5497E-17  0.1303E-01  0.3891E-17  0.0000E+00  0.0000E+00  0.0000E+00  0.0000E+00  0.0000E+00
    -14.050  0.5334E-01  0.6003E-16  0.1423E+00  0.4249E-16  0.0000E+00  0.0000E+00  0.0000E+00  0.0000E+00  0.0000E+00
    -13.927  0.2819E+00  0.3173E-15  0.7521E+00  0.2246E-15  0.0000E+00  0.0000E+00  0.0000E+00  0.0000E+00  0.0000E+00
    -13.803  0.7245E+00  0.8155E-15  0.1933E+01  0.5772E-15  0.0000E+00  0.0000E+00  0.0000E+00  0.0000E+00  0.0000E+00
    -13.679  0.9083E+00  0.1022E-14  0.2423E+01  0.7236E-15  0.0000E+00  0.0000E+00  0.0000E+00  0.0000E+00  0.0000E+00
    -13.556  0.5559E+00  0.6257E-15  0.1483E+01  0.4429E-15  0.0000E+00  0.0000E+00  0.0000E+00  0.0000E+00  0.0000E+00
    -13.432  0.1658E+00  0.1866E-15  0.4423E+00  0.1321E-15  0.0000E+00  0.0000E+00  0.0000E+00  0.0000E+00  0.0000E+00
    -13.308  0.2401E-01  0.2702E-16  0.6405E-01  0.1912E-16  0.0000E+00  0.0000E+00  0.0000E+00  0.0000E+00  0.0000E+00
    -13.185  0.1679E-02  0.1890E-17  0.4479E-02  0.1338E-17  0.0000E+00  0.0000E+00  0.0000E+00  0.0000E+00  0.0000E+00
    -13.061  0.5640E-04  0.6348E-19  0.1505E-03  0.4493E-19  0.0000E+00  0.0000E+00  0.0000E+00  0.0000E+00  0.0000E+00
    -12.937  0.9052E-06  0.1019E-20  0.2415E-05  0.7212E-21  0.0000E+00  0.0000E+00  0.0000E+00  0.0000E+00  0.0000E+00
    -12.814  0.6911E-08  0.7778E-23  0.1844E-07  0.5505E-23  0.0000E+00  0.0000E+00  0.0000E+00  0.0000E+00  0.0000E+00
    -12.690  0.2499E-10  0.2813E-25  0.6668E-10  0.1991E-25  0.0000E+00  0.0000E+00  0.0000E+00  0.0000E+00  0.0000E+00
    -12.567  0.4289E-13  0.3090E-13  0.1144E-12  0.3090E-13  0.0000E+00  0.0000E+00  0.0000E+00  0.0000E+00  0.0000E+00
    -12.443  0.7249E-24  0.2122E-10  0.1422E-24  0.2122E-10  0.0000E+00  0.0000E+00  0.0000E+00  0.0000E+00  0.0000E+00
    -12.319  0.2365E-21  0.6922E-08  0.4638E-22  0.6922E-08  0.0000E+00  0.0000E+00  0.0000E+00  0.0000E+00  0.0000E+00
    -12.196  0.3651E-19  0.1069E-05  0.7162E-20  0.1069E-05  0.0000E+00  0.0000E+00  0.0000E+00  0.0000E+00  0.0000E+00
    -12.072  0.2679E-17  0.7843E-04  0.5255E-18  0.7843E-04  0.0000E+00  0.0000E+00  0.0000E+00  0.0000E+00  0.0000E+00
    -11.948  0.9384E-16  0.2747E-02  0.1841E-16  0.2747E-02  0.0000E+00  0.0000E+00  0.0000E+00  0.0000E+00  0.0000E+00
    -11.825  0.1577E-14  0.4615E-01  0.3093E-15  0.4615E-01  0.0000E+00  0.0000E+00  0.0000E+00  0.0000E+00  0.0000E+00
    -11.701  0.1278E-13  0.3741E+00  0.2507E-14  0.3741E+00  0.0000E+00  0.0000E+00  0.0000E+00  0.0000E+00  0.0000E+00