    2    2    1    1
  0.2560000E+03  0.8000000E-09  0.8000000E-09  0.8000000E-09  0.5000000E-15
  1.000000000000000E-004
  CAR 
 CO dimer in a box                       
     10      1     16
 
  0.0000000E+00  0.0000000E+00  0.0000000E+00  0.1000000E+01
    1      -28.988023   1.000000
    2      -13.763934   1.000000
    3      -11.465568   1.000000
    4      -11.465568   1.000000
    5       -8.765091   1.000000
    6       -1.850311   0.000000
    7       -1.850311   0.000000
    8       -0.244903   0.000000
    9        1.711703   0.000000
   10        1.880460   0.000000
   11        1.880460   0.000000
   12        1.943188   0.000000
   13        1.946481   0.000000
   14        2.476785   0.000000
   15        3.693944   0.000000
   16        4.102138   0.000000
