       N       E                     dE             d eps       ncg     rms          rms(c)
DAV:   1     0.556952697632E+02    0.55695E+02   -0.26117E+03    32   0.286E+02
DAV:   2    -0.763393115872E+01   -0.63329E+02   -0.63329E+02    32   0.865E+01
DAV:   3    -0.155872867353E+02   -0.79534E+01   -0.79534E+01    64   0.387E+01
DAV:   4    -0.155953432749E+02   -0.80565E-02   -0.80565E-02    32   0.156E+00
DAV:   5    -0.155953725406E+02   -0.29266E-04   -0.29266E-04    64   0.932E-02    0.618E+00
DAV:   6    -0.149588894136E+02    0.63648E+00   -0.34938E+00    32   0.745E+00    0.319E+00
DAV:   7    -0.148316136109E+02    0.12728E+00   -0.61635E-01    64   0.276E+00    0.164E+00
DAV:   8    -0.147934062380E+02    0.38207E-01   -0.14049E-01    64   0.166E+00    0.384E-01
DAV:   9    -0.147925117723E+02    0.89447E-03   -0.47339E-03    64   0.343E-01    0.637E-02
DAV:  10    -0.147935099044E+02   -0.99813E-03   -0.32587E-04    64   0.754E-02    0.340E-02
DAV:  11    -0.147958351501E+02   -0.23252E-02   -0.49590E-04    48   0.626E-02    0.140E-02
DAV:  12    -0.147968177875E+02   -0.98264E-03   -0.11091E-04    32   0.306E-02    0.614E-03
DAV:  13    -0.147971915920E+02   -0.37380E-03   -0.53117E-05    32   0.174E-02    0.311E-03
DAV:  14    -0.147973768622E+02   -0.18527E-03   -0.25137E-05    32   0.118E-02    0.142E-03
DAV:  15    -0.147973957815E+02   -0.18919E-04   -0.13486E-06    32   0.362E-03
   1 F= -.14797396E+02 E0= -.14797396E+02  d E =-.536809E-12
