 vasp.5.4.1 24Jun15 (build Apr 04 2016 10:44:54) complex                        
  
 executed on                Titan date 2018.12.04  13:36:45
 running on   16 total cores
 distrk:  each k-point on   16 cores,    1 groups
 distr:  one band on NCORES_PER_BAND=   1 cores,   16 groups


--------------------------------------------------------------------------------------------------------


 INCAR:
 POTCAR:   PAW_RPBE O 08Apr2002                   
 POTCAR:   PAW_RPBE C 08Apr2002                   

 ----------------------------------------------------------------------------- 
|                                                                             |
|           W    W    AA    RRRRR   N    N  II  N    N   GGGG   !!!           |
|           W    W   A  A   R    R  NN   N  II  NN   N  G    G  !!!           |
|           W    W  A    A  R    R  N N  N  II  N N  N  G       !!!           |
|           W WW W  AAAAAA  RRRRR   N  N N  II  N  N N  G  GGG   !            |
|           WW  WW  A    A  R   R   N   NN  II  N   NN  G    G                |
|           W    W  A    A  R    R  N    N  II  N    N   GGGG   !!!           |
|                                                                             |
|      For optimal performance we recommend to set                            |
|        NCORE= 4 - approx SQRT( number of cores)                             |
|      NCORE specifies how many cores store one orbital (NPAR=cpu/NCORE).     |
|      This setting can  greatly improve the performance of VASP for DFT.     |
|      The default, NPAR=number of cores might be grossly inefficient         |
|      on modern multi-core architectures or massively parallel machines.     |
|      Do your own testing !!!!                                               |
|      Unfortunately you need to use the default for GW and RPA calculations. |
|      (for HF NCORE is supported but not extensively tested yet)             |
|                                                                             |
 ----------------------------------------------------------------------------- 

 POTCAR:   PAW_RPBE O 08Apr2002                   
   VRHFIN =O: s2p4                                                              
   LEXCH  = PE                                                                  
   EATOM  =   432.3788 eV,   31.7789 Ry                                         
                                                                                
   TITEL  = PAW_RPBE O 08Apr2002                                                
   LULTRA =        F    use ultrasoft PP ?                                      
   IUNSCR =        0    unscreen: 0-lin 1-nonlin 2-no                           
   RPACOR =     .000    partial core radius                                     
   POMASS =   16.000; ZVAL   =    6.000    mass and valenz                      
   RCORE  =    1.520    outmost cutoff radius                                   
   RWIGS  =    1.550; RWIGS  =     .820    wigner-seitz radius (au A)           
   ENMAX  =  400.000; ENMIN  =  300.000 eV                                      
   ICORE  =        2    local potential                                         
   LCOR   =        T    correct aug charges                                     
   LPAW   =        T    paw PP                                                  
   EAUG   =  605.392                                                            
   DEXC   =     .000                                                            
   RMAX   =    2.264    core radius for proj-oper                               
   RAUG   =    1.300    factor for augmentation sphere                          
   RDEP   =    1.550    radius for radial grids                                 
   QCUT   =   -5.520; QGAM   =   11.041    optimization parameters              
                                                                                
   Description                                                                  
     l     E      TYP  RCUT    TYP  RCUT                                        
     0   .000     23  1.200                                                     
     0  -.700     23  1.200                                                     
     1   .000     23  1.520                                                     
     1   .600     23  1.520                                                     
     2   .000      7  1.500                                                     
  local pseudopotential read in
  atomic valenz-charges read in
  non local Contribution for L=           0  read in
    real space projection operators read in
  non local Contribution for L=           0  read in
    real space projection operators read in
  non local Contribution for L=           1  read in
    real space projection operators read in
  non local Contribution for L=           1  read in
    real space projection operators read in
    PAW grid and wavefunctions read in
 
   number of l-projection  operators is LMAX  =           4
   number of lm-projection operators is LMMAX =           8
 
 POTCAR:   PAW_RPBE C 08Apr2002                   
   VRHFIN =C: s2p2                                                              
   LEXCH  = PE                                                                  
   EATOM  =   147.1560 eV,   10.8157 Ry                                         
                                                                                
   TITEL  = PAW_RPBE C 08Apr2002                                                
   LULTRA =        F    use ultrasoft PP ?                                      
   IUNSCR =        0    unscreen: 0-lin 1-nonlin 2-no                           
   RPACOR =     .000    partial core radius                                     
   POMASS =   12.011; ZVAL   =    4.000    mass and valenz                      
   RCORE  =    1.500    outmost cutoff radius                                   
   RWIGS  =    1.630; RWIGS  =     .863    wigner-seitz radius (au A)           
   ENMAX  =  400.000; ENMIN  =  300.000 eV                                      
   ICORE  =        2    local potential                                         
   LCOR   =        T    correct aug charges                                     
   LPAW   =        T    paw PP                                                  
   EAUG   =  644.873                                                            
   DEXC   =     .000                                                            
   RMAX   =    2.266    core radius for proj-oper                               
   RAUG   =    1.300    factor for augmentation sphere                          
   RDEP   =    1.501    radius for radial grids                                 
   RDEPT  =    1.300    core radius for aug-charge                              
   QCUT   =   -5.516; QGAM   =   11.032    optimization parameters              
                                                                                
   Description                                                                  
     l     E      TYP  RCUT    TYP  RCUT                                        
     0   .000     23  1.200                                                     
     0   .000     23  1.200                                                     
     1   .000     23  1.500                                                     
     1  2.500     23  1.500                                                     
     2   .000      7  1.500                                                     
  local pseudopotential read in
  atomic valenz-charges read in
  non local Contribution for L=           0  read in
    real space projection operators read in
  non local Contribution for L=           0  read in
    real space projection operators read in
  non local Contribution for L=           1  read in
    real space projection operators read in
  non local Contribution for L=           1  read in
    real space projection operators read in
    PAW grid and wavefunctions read in
 
   number of l-projection  operators is LMAX  =           4
   number of lm-projection operators is LMMAX =           8
 
 PAW_RPBE O 08Apr2002                   :
 energy of atom  1       EATOM= -432.3788
 kinetic energy error for atom=    0.1156 (will be added to EATOM!!)
 PAW_RPBE C 08Apr2002                   :
 energy of atom  2       EATOM= -147.1560
 kinetic energy error for atom=    0.0288 (will be added to EATOM!!)
 
 
 POSCAR: O atom in a box                         
  positions in cartesian coordinates
  No initial velocities read in
 exchange correlation table for  LEXCH =        8
   RHO(1)=    0.500       N(1)  =     2000
   RHO(2)=  100.500       N(2)  =     4000
 


--------------------------------------------------------------------------------------------------------


 ion  position               nearest neighbor table
   1  0.000  0.000  0.000-   2 1.14
   2  0.000  0.000  0.143-   1 1.14
 
  LATTYP: Found a simple cubic cell.
 ALAT       =     8.0000000000
  
  Lattice vectors:
  
 A1 = (   8.0000000000,   0.0000000000,   0.0000000000)
 A2 = (   0.0000000000,   8.0000000000,   0.0000000000)
 A3 = (   0.0000000000,   0.0000000000,   8.0000000000)


Analysis of symmetry for initial positions (statically):
=====================================================================
 Subroutine PRICEL returns:
 Original cell was already a primitive cell.
 

 Routine SETGRP: Setting up the symmetry group for a 
 simple cubic supercell.


 Subroutine GETGRP returns: Found  8 space group operations
 (whereof  8 operations were pure point group operations)
 out of a pool of 48 trial point group operations.


The static configuration has the point symmetry C_4v.


Analysis of symmetry for dynamics (positions and initial velocities):
=====================================================================
 Subroutine PRICEL returns:
 Original cell was already a primitive cell.
 

 Routine SETGRP: Setting up the symmetry group for a 
 simple cubic supercell.


 Subroutine GETGRP returns: Found  8 space group operations
 (whereof  8 operations were pure point group operations)
 out of a pool of 48 trial point group operations.


The dynamic configuration has the point symmetry C_4v.


Analysis of constrained symmetry for selective dynamics:
=====================================================================
 Subroutine PRICEL returns:
 Original cell was already a primitive cell.
 

 Routine SETGRP: Setting up the symmetry group for a 
 simple cubic supercell.


 Subroutine GETGRP returns: Found  8 space group operations
 (whereof  8 operations were pure point group operations)
 out of a pool of 48 trial point group operations.


The constrained configuration has the point symmetry C_4v.
 
 
 KPOINTS: Gamma-point only                        
  k-points in reciprocal lattice
Space group operators:
 irot       det(A)        alpha          n_x          n_y          n_z        tau_x        tau_y        tau_z
    1     1.000000     0.000000     1.000000     0.000000     0.000000     0.000000     0.000000     0.000000
    2     1.000000    90.000000     0.000000     0.000000    -1.000000     0.000000     0.000000     0.000000
    3     1.000000   180.000000     0.000000     0.000000     1.000000     0.000000     0.000000     0.000000
    4     1.000000    90.000000     0.000000     0.000000     1.000000     0.000000     0.000000     0.000000
    5    -1.000000   180.000000     1.000000     0.000000     0.000000     0.000000     0.000000     0.000000
    6    -1.000000   180.000000     0.707107     0.707107     0.000000     0.000000     0.000000     0.000000
    7    -1.000000   180.000000     0.000000     1.000000     0.000000     0.000000     0.000000     0.000000
    8    -1.000000   180.000000     0.707107    -0.707107     0.000000     0.000000     0.000000     0.000000


--------------------------------------------------------------------------------------------------------




 Dimension of arrays:
   k-points           NKPTS =      1   k-points in BZ     NKDIM =      1   number of bands    NBANDS=     16
   number of dos      NEDOS =    301   number of ions     NIONS =      2
   non local maximal  LDIM  =      4   non local SUM 2l+1 LMDIM =      8
   total plane-waves  NPLWV =  64000
   max r-space proj   IRMAX =      1   max aug-charges    IRDMAX=   1821
   dimension x,y,z NGX =    40 NGY =   40 NGZ =   40
   dimension x,y,z NGXF=    80 NGYF=   80 NGZF=   80
   support grid    NGXF=    80 NGYF=   80 NGZF=   80
   ions per type =               1   1
 NGX,Y,Z   is equivalent  to a cutoff of   8.31,  8.31,  8.31 a.u.
 NGXF,Y,Z  is equivalent  to a cutoff of  16.62, 16.62, 16.62 a.u.


 I would recommend the setting:
   dimension x,y,z NGX =    39 NGY =   39 NGZ =   39
 SYSTEM =  CO dimer in a box                       
 POSCAR =  O atom in a box                         

 Startparameter for this run:
   NWRITE =      2    write-flag & timer
   PREC   = normal    normal or accurate (medium, high low for compatibility)
   ISTART =      0    job   : 0-new  1-cont  2-samecut
   ICHARG =      2    charge: 1-file 2-atom 10-const
   ISPIN  =      1    spin polarized calculation?
   LNONCOLLINEAR =      F non collinear calculations
   LSORBIT =      F    spin-orbit coupling
   INIWAV =      1    electr: 0-lowe 1-rand  2-diag
   LASPH  =      F    aspherical Exc in radial PAW
   METAGGA=      F    non-selfconsistent MetaGGA calc.

 Electronic Relaxation 1
   ENCUT  =  400.0 eV  29.40 Ry    5.42 a.u.  13.05 13.05 13.05*2*pi/ulx,y,z
   ENINI  =  400.0     initial cutoff
   ENAUG  =  644.9 eV  augmentation charge cutoff
   NELM   =     60;   NELMIN=  2; NELMDL= -5     # of ELM steps 
   EDIFF  = 0.1E-03   stopping-criterion for ELM
   LREAL  =      F    real-space projection
   NLSPLINE    = F    spline interpolate recip. space projectors
   LCOMPAT=      F    compatible to vasp.4.4
   GGA_COMPAT  = T    GGA compatible to vasp.4.4-vasp.4.6
   LMAXPAW     = -100 max onsite density
   LMAXMIX     =    2 max onsite mixed and CHGCAR
   VOSKOWN=      0    Vosko Wilk Nusair interpolation
   ROPT   =    0.00000   0.00000
 Ionic relaxation
   EDIFFG = 0.1E-02   stopping-criterion for IOM
   NSW    =      0    number of steps for IOM
   NBLOCK =      1;   KBLOCK =      1    inner block; outer block 
   IBRION =     -1    ionic relax: 0-MD 1-quasi-New 2-CG
   NFREE  =      0    steps in history (QN), initial steepest desc. (CG)
   ISIF   =      2    stress and relaxation
   IWAVPR =     10    prediction:  0-non 1-charg 2-wave 3-comb
   ISYM   =      2    0-nonsym 1-usesym 2-fastsym
   LCORR  =      T    Harris-Foulkes like correction to forces

   POTIM  = 0.5000    time-step for ionic-motion
   TEIN   =    0.0    initial temperature
   TEBEG  =    0.0;   TEEND  =   0.0 temperature during run
   SMASS  =  -3.00    Nose mass-parameter (am)
   estimated Nose-frequenzy (Omega)   =  0.10E-29 period in steps =****** mass=  -0.146E-26a.u.
   SCALEE = 1.0000    scale energy and forces
   NPACO  =    256;   APACO  = 16.0  distance and # of slots for P.C.
   PSTRESS=    0.0 pullay stress

  Mass of Ions in am
   POMASS =  16.00 12.01
  Ionic Valenz
   ZVAL   =   6.00  4.00
  Atomic Wigner-Seitz radii
   RWIGS  =  -1.00 -1.00
  virtual crystal weights 
   VCA    =   1.00  1.00
   NELECT =      10.0000    total number of electrons
   NUPDOWN=      -1.0000    fix difference up-down

 DOS related values:
   EMIN   =  10.00;   EMAX   =-10.00  energy-range for DOS
   EFERMI =   0.00
   ISMEAR =     0;   SIGMA  =   0.20  broadening in eV -4-tet -1-fermi 0-gaus

 Electronic relaxation 2 (details)
   IALGO  =     38    algorithm
   LDIAG  =      T    sub-space diagonalisation (order eigenvalues)
   LSUBROT=      F    optimize rotation matrix (better conditioning)
   TURBO    =      0    0=normal 1=particle mesh
   IRESTART =      0    0=no restart 2=restart with 2 vectors
   NREBOOT  =      0    no. of reboots
   NMIN     =      0    reboot dimension
   EREF     =   0.00    reference energy to select bands
   IMIX   =      4    mixing-type and parameters
     AMIX     =   0.40;   BMIX     =  1.00
     AMIX_MAG =   1.60;   BMIX_MAG =  1.00
     AMIN     =   0.10
     WC   =   100.;   INIMIX=   1;  MIXPRE=   1;  MAXMIX= -45

 Intra band minimization:
   WEIMIN = 0.0000     energy-eigenvalue tresh-hold
   EBREAK =  0.16E-05  absolut break condition
   DEPER  =   0.30     relativ break condition  

   TIME   =   0.40     timestep for ELM

  volume/ion in A,a.u.               =     256.00      1727.57
  Fermi-wavevector in a.u.,A,eV,Ry     =   0.440878  0.833138  2.644608  0.194373
  Thomas-Fermi vector in A             =   1.415836
 
 Write flags
   LWAVE  =      T    write WAVECAR
   LCHARG =      T    write CHGCAR
   LVTOT  =      F    write LOCPOT, total local potential
   LVHAR  =      F    write LOCPOT, Hartree potential only
   LELF   =      F    write electronic localiz. function (ELF)
   LORBIT =     11    0 simple, 1 ext, 2 COOP (PROOUT)


 Dipole corrections
   LMONO  =      F    monopole corrections only (constant potential shift)
   LDIPOL =      F    correct potential (dipole corrections)
   IDIPOL =      0    1-x, 2-y, 3-z, 4-all directions 
   EPSILON=  1.0000000 bulk dielectric constant

 Exchange correlation treatment:
   GGA     =    --    GGA type
   LEXCH   =     8    internal setting for exchange type
   VOSKOWN=      0    Vosko Wilk Nusair interpolation
   LHFCALC =     F    Hartree Fock is set to
   LHFONE  =     F    Hartree Fock one center treatment
   AEXX    =    0.0000 exact exchange contribution

 Linear response parameters
   LEPSILON=     F    determine dielectric tensor
   LRPA    =     F    only Hartree local field effects (RPA)
   LNABLA  =     F    use nabla operator in PAW spheres
   LVEL    =     F    velocity operator in full k-point grid
   LINTERFAST=   F  fast interpolation
   KINTER  =     0    interpolate to denser k-point grid
   CSHIFT  =0.1000    complex shift for real part using Kramers Kronig
   OMEGAMAX=  -1.0    maximum frequency
   DEG_THRESHOLD= 0.2000000E-02 threshold for treating states as degnerate
   RTIME   =    0.100 relaxation time in fs

 Orbital magnetization related:
   ORBITALMAG=     F  switch on orbital magnetization
   LCHIMAG   =     F  perturbation theory with respect to B field
   DQ        =  0.001000  dq finite difference perturbation B field



--------------------------------------------------------------------------------------------------------


 Static calculation
 charge density and potential will be updated during run
 non-spin polarized calculation
 Variant of blocked Davidson
 Davidson routine will perform the subspace rotation
 perform sub-space diagonalisation
    after iterative eigenvector-optimisation
 modified Broyden-mixing scheme, WC =      100.0
 initial mixing is a Kerker type mixing with AMIX =  0.4000 and BMIX =      1.0000
 Hartree-type preconditioning will be used
 using additional bands           11
 reciprocal scheme for non local part
 calculate Harris-corrections to forces 
   (improved forces if not selfconsistent)
 use gradient corrections 
 use of overlap-Matrix (Vanderbilt PP)
 Gauss-broadening in eV      SIGMA  =   0.20


--------------------------------------------------------------------------------------------------------


  energy-cutoff  :      400.00
  volume of cell :      512.00
      direct lattice vectors                 reciprocal lattice vectors
     8.000000000  0.000000000  0.000000000     0.125000000  0.000000000  0.000000000
     0.000000000  8.000000000  0.000000000     0.000000000  0.125000000  0.000000000
     0.000000000  0.000000000  8.000000000     0.000000000  0.000000000  0.125000000

  length of vectors
     8.000000000  8.000000000  8.000000000     0.125000000  0.125000000  0.125000000


 
 k-points in units of 2pi/SCALE and weight: Gamma-point only                        
   0.00000000  0.00000000  0.00000000       1.000
 
 k-points in reciprocal lattice and weights: Gamma-point only                        
   0.00000000  0.00000000  0.00000000       1.000
 
 position of ions in fractional coordinates (direct lattice) 
   0.00000000  0.00000000  0.00000000
   0.00000000  0.00000000  0.14287500
 
 position of ions in cartesian coordinates  (Angst):
   0.00000000  0.00000000  0.00000000
   0.00000000  0.00000000  1.14300000
 


--------------------------------------------------------------------------------------------------------


 k-point  1 :   0.0000 0.0000 0.0000  plane waves:    9315

 maximum and minimum number of plane-waves per node :      9315     9315

 maximum number of plane-waves:      9315
 maximum index in each direction: 
   IXMAX=   13   IYMAX=   13   IZMAX=   13
   IXMIN=  -13   IYMIN=  -13   IZMIN=  -13

 WARNING: aliasing errors must be expected set NGX to  54 to avoid them
 WARNING: aliasing errors must be expected set NGY to  54 to avoid them
 WARNING: aliasing errors must be expected set NGZ to  54 to avoid them
 aliasing errors are usually negligible using standard VASP settings
 and one can safely disregard these warnings

 serial   3D FFT for wavefunctions
 parallel 3D FFT for charge:
    minimum data exchange during FFTs selected (reduces bandwidth)


 total amount of memory used by VASP on root node    37433. kBytes
========================================================================

   base      :      30000. kBytes
   nonl-proj :       1492. kBytes
   fftplans  :       1377. kBytes
   grid      :       4409. kBytes
   one-center:          6. kBytes
   wavefun   :        149. kBytes
 
     INWAV:  cpu time    0.0000: real time    0.0000
 Broyden mixing: mesh for mixing (old mesh)
   NGX = 27   NGY = 27   NGZ = 27
  (NGX  = 80   NGY  = 80   NGZ  = 80)
  gives a total of  19683 points

 initial charge density was supplied:
 charge density of overlapping atoms calculated
 number of electron      10.0000000 magnetization 
 keeping initial charge density in first step


--------------------------------------------------------------------------------------------------------


 Maximum index for augmentation-charges          169 (set IRDMAX)


--------------------------------------------------------------------------------------------------------


 First call to EWALD:  gamma=   0.222
 Maximum number of real-space cells 3x 3x 3
 Maximum number of reciprocal cells 3x 3x 3

 FEWALD executed in parallel
    FEWALD:  cpu time    0.0040: real time    0.0022


----------------------------------------- Iteration    1(   1)  ---------------------------------------


    POTLOK:  cpu time    0.0680: real time    0.0675
    SETDIJ:  cpu time    0.0040: real time    0.0019
     EDDAV:  cpu time    0.0400: real time    0.0403
       DOS:  cpu time    0.0000: real time    0.0002
    --------------------------------------------
      LOOP:  cpu time    0.1120: real time    0.1157

 eigenvalue-minimisations  :    32
 total energy-change (2. order) : 0.5569527E+02  (-0.2611689E+03)
 number of electron      10.0000000 magnetization 
 augmentation part       10.0000000 magnetization 

 Free energy of the ion-electron system (eV)
  ---------------------------------------------------
  alpha Z        PSCENC =         0.85010715
  Ewald energy   TEWEN  =        48.90784304
  -Hartree energ DENC   =      -512.54826743
  -exchange      EXHF   =         0.00000000
  -V(xc)+E(xc)   XCENC  =        39.84835132
  PAW double counting   =       283.82984571     -286.83001101
  entropy T*S    EENTRO =        -0.00000000
  eigenvalues    EBANDS =       -97.75301892
  atomic energy  EATOM  =       579.39041991
  Solvation  Ediel_sol  =         0.00000000
  ---------------------------------------------------
  free energy    TOTEN  =        55.69526976 eV

  energy without entropy =       55.69526976  energy(sigma->0) =       55.69526976


--------------------------------------------------------------------------------------------------------




----------------------------------------- Iteration    1(   2)  ---------------------------------------


     EDDAV:  cpu time    0.0400: real time    0.0378
       DOS:  cpu time    0.0000: real time    0.0001
    --------------------------------------------
      LOOP:  cpu time    0.0400: real time    0.0441

 eigenvalue-minimisations  :    32
 total energy-change (2. order) :-0.6332920E+02  (-0.6332920E+02)
 number of electron      10.0000000 magnetization 
 augmentation part       10.0000000 magnetization 

 Free energy of the ion-electron system (eV)
  ---------------------------------------------------
  alpha Z        PSCENC =         0.85010715
  Ewald energy   TEWEN  =        48.90784304
  -Hartree energ DENC   =      -512.54826743
  -exchange      EXHF   =         0.00000000
  -V(xc)+E(xc)   XCENC  =        39.84835132
  PAW double counting   =       283.82984571     -286.83001101
  entropy T*S    EENTRO =        -0.00000000
  eigenvalues    EBANDS =      -161.08221984
  atomic energy  EATOM  =       579.39041991
  Solvation  Ediel_sol  =         0.00000000
  ---------------------------------------------------
  free energy    TOTEN  =        -7.63393116 eV

  energy without entropy =       -7.63393116  energy(sigma->0) =       -7.63393116


--------------------------------------------------------------------------------------------------------




----------------------------------------- Iteration    1(   3)  ---------------------------------------


     EDDAV:  cpu time    0.0760: real time    0.0760
       DOS:  cpu time    0.0000: real time    0.0001
    --------------------------------------------
      LOOP:  cpu time    0.0760: real time    0.0799

 eigenvalue-minimisations  :    64
 total energy-change (2. order) :-0.7953356E+01  (-0.7953356E+01)
 number of electron      10.0000000 magnetization 
 augmentation part       10.0000000 magnetization 

 Free energy of the ion-electron system (eV)
  ---------------------------------------------------
  alpha Z        PSCENC =         0.85010715
  Ewald energy   TEWEN  =        48.90784304
  -Hartree energ DENC   =      -512.54826743
  -exchange      EXHF   =         0.00000000
  -V(xc)+E(xc)   XCENC  =        39.84835132
  PAW double counting   =       283.82984571     -286.83001101
  entropy T*S    EENTRO =        -0.00000000
  eigenvalues    EBANDS =      -169.03557542
  atomic energy  EATOM  =       579.39041991
  Solvation  Ediel_sol  =         0.00000000
  ---------------------------------------------------
  free energy    TOTEN  =       -15.58728674 eV

  energy without entropy =      -15.58728674  energy(sigma->0) =      -15.58728674


--------------------------------------------------------------------------------------------------------




----------------------------------------- Iteration    1(   4)  ---------------------------------------


     EDDAV:  cpu time    0.0360: real time    0.0376
       DOS:  cpu time    0.0000: real time    0.0001
    --------------------------------------------
      LOOP:  cpu time    0.0400: real time    0.0429

 eigenvalue-minimisations  :    32
 total energy-change (2. order) :-0.8056540E-02  (-0.8056540E-02)
 number of electron      10.0000000 magnetization 
 augmentation part       10.0000000 magnetization 

 Free energy of the ion-electron system (eV)
  ---------------------------------------------------
  alpha Z        PSCENC =         0.85010715
  Ewald energy   TEWEN  =        48.90784304
  -Hartree energ DENC   =      -512.54826743
  -exchange      EXHF   =         0.00000000
  -V(xc)+E(xc)   XCENC  =        39.84835132
  PAW double counting   =       283.82984571     -286.83001101
  entropy T*S    EENTRO =        -0.00000000
  eigenvalues    EBANDS =      -169.04363196
  atomic energy  EATOM  =       579.39041991
  Solvation  Ediel_sol  =         0.00000000
  ---------------------------------------------------
  free energy    TOTEN  =       -15.59534327 eV

  energy without entropy =      -15.59534327  energy(sigma->0) =      -15.59534327


--------------------------------------------------------------------------------------------------------




----------------------------------------- Iteration    1(   5)  ---------------------------------------


     EDDAV:  cpu time    0.0760: real time    0.0743
       DOS:  cpu time    0.0000: real time    0.0001
    CHARGE:  cpu time    0.0240: real time    0.0237
    MIXING:  cpu time    0.0000: real time    0.0012
    --------------------------------------------
      LOOP:  cpu time    0.1000: real time    0.1117

 eigenvalue-minimisations  :    64
 total energy-change (2. order) :-0.2926575E-04  (-0.2926579E-04)
 number of electron      10.0000114 magnetization 
 augmentation part        0.7220199 magnetization 

 Broyden mixing:
  rms(total) = 0.61800E+00    rms(broyden)= 0.61674E+00
  rms(prec ) = 0.82916E+00
  weight for this iteration     100.00

 Free energy of the ion-electron system (eV)
  ---------------------------------------------------
  alpha Z        PSCENC =         0.85010715
  Ewald energy   TEWEN  =        48.90784304
  -Hartree energ DENC   =      -512.54826743
  -exchange      EXHF   =         0.00000000
  -V(xc)+E(xc)   XCENC  =        39.84835132
  PAW double counting   =       283.82984571     -286.83001101
  entropy T*S    EENTRO =        -0.00000000
  eigenvalues    EBANDS =      -169.04366123
  atomic energy  EATOM  =       579.39041991
  Solvation  Ediel_sol  =         0.00000000
  ---------------------------------------------------
  free energy    TOTEN  =       -15.59537254 eV

  energy without entropy =      -15.59537254  energy(sigma->0) =      -15.59537254


--------------------------------------------------------------------------------------------------------




----------------------------------------- Iteration    1(   6)  ---------------------------------------


    POTLOK:  cpu time    0.0400: real time    0.0427
    SETDIJ:  cpu time    0.0040: real time    0.0019
     EDDAV:  cpu time    0.0400: real time    0.0395
       DOS:  cpu time    0.0000: real time    0.0001
    CHARGE:  cpu time    0.0160: real time    0.0163
    MIXING:  cpu time    0.0000: real time    0.0012
    --------------------------------------------
      LOOP:  cpu time    0.1040: real time    0.1077

 eigenvalue-minimisations  :    32
 total energy-change (2. order) : 0.6364831E+00  (-0.3493828E+00)
 number of electron      10.0000099 magnetization 
 augmentation part        0.6433659 magnetization 

 Broyden mixing:
  rms(total) = 0.31850E+00    rms(broyden)= 0.31814E+00
  rms(prec ) = 0.41157E+00
  weight for this iteration     100.00

 eigenvalues of (default mixing * dielectric matrix)
  average eigenvalue GAMMA=   1.0048
  1.0048

 Free energy of the ion-electron system (eV)
  ---------------------------------------------------
  alpha Z        PSCENC =         0.85010715
  Ewald energy   TEWEN  =        48.90784304
  -Hartree energ DENC   =      -526.39832799
  -exchange      EXHF   =         0.00000000
  -V(xc)+E(xc)   XCENC  =        40.65659199
  PAW double counting   =       331.51412100     -334.68017046
  entropy T*S    EENTRO =        -0.00000000
  eigenvalues    EBANDS =      -155.19947404
  atomic energy  EATOM  =       579.39041991
  Solvation  Ediel_sol  =         0.00000000
  ---------------------------------------------------
  free energy    TOTEN  =       -14.95888941 eV

  energy without entropy =      -14.95888941  energy(sigma->0) =      -14.95888941


--------------------------------------------------------------------------------------------------------




----------------------------------------- Iteration    1(   7)  ---------------------------------------


    POTLOK:  cpu time    0.0400: real time    0.0428
    SETDIJ:  cpu time    0.0040: real time    0.0019
     EDDAV:  cpu time    0.0760: real time    0.0758
       DOS:  cpu time    0.0000: real time    0.0001
    CHARGE:  cpu time    0.0160: real time    0.0164
    MIXING:  cpu time    0.0000: real time    0.0012
    --------------------------------------------
      LOOP:  cpu time    0.1400: real time    0.1462

 eigenvalue-minimisations  :    64
 total energy-change (2. order) : 0.1272758E+00  (-0.6163482E-01)
 number of electron      10.0000104 magnetization 
 augmentation part        0.6646151 magnetization 

 Broyden mixing:
  rms(total) = 0.16350E+00    rms(broyden)= 0.16349E+00
  rms(prec ) = 0.20936E+00
  weight for this iteration     100.00

 eigenvalues of (default mixing * dielectric matrix)
  average eigenvalue GAMMA=   1.4068
  0.7428  2.0708

 Free energy of the ion-electron system (eV)
  ---------------------------------------------------
  alpha Z        PSCENC =         0.85010715
  Ewald energy   TEWEN  =        48.90784304
  -Hartree energ DENC   =      -528.10347894
  -exchange      EXHF   =         0.00000000
  -V(xc)+E(xc)   XCENC  =        40.77869268
  PAW double counting   =       347.61803871     -350.75761616
  entropy T*S    EENTRO =        -0.00000000
  eigenvalues    EBANDS =      -153.51562000
  atomic energy  EATOM  =       579.39041991
  Solvation  Ediel_sol  =         0.00000000
  ---------------------------------------------------
  free energy    TOTEN  =       -14.83161361 eV

  energy without entropy =      -14.83161361  energy(sigma->0) =      -14.83161361


--------------------------------------------------------------------------------------------------------




----------------------------------------- Iteration    1(   8)  ---------------------------------------


    POTLOK:  cpu time    0.0400: real time    0.0422
    SETDIJ:  cpu time    0.0040: real time    0.0019
     EDDAV:  cpu time    0.0760: real time    0.0749
       DOS:  cpu time    0.0000: real time    0.0001
    CHARGE:  cpu time    0.0160: real time    0.0163
    MIXING:  cpu time    0.0000: real time    0.0012
    --------------------------------------------
      LOOP:  cpu time    0.1400: real time    0.1431

 eigenvalue-minimisations  :    64
 total energy-change (2. order) : 0.3820737E-01  (-0.1404862E-01)
 number of electron      10.0000102 magnetization 
 augmentation part        0.6529279 magnetization 

 Broyden mixing:
  rms(total) = 0.38378E-01    rms(broyden)= 0.38352E-01
  rms(prec ) = 0.51268E-01
  weight for this iteration     100.00

 eigenvalues of (default mixing * dielectric matrix)
  average eigenvalue GAMMA=   1.5579
  2.3102  1.6470  0.7165

 Free energy of the ion-electron system (eV)
  ---------------------------------------------------
  alpha Z        PSCENC =         0.85010715
  Ewald energy   TEWEN  =        48.90784304
  -Hartree energ DENC   =      -532.63214524
  -exchange      EXHF   =         0.00000000
  -V(xc)+E(xc)   XCENC  =        41.05571012
  PAW double counting   =       373.02463767     -376.16711887
  entropy T*S    EENTRO =        -0.00000000
  eigenvalues    EBANDS =      -149.22286000
  atomic energy  EATOM  =       579.39041991
  Solvation  Ediel_sol  =         0.00000000
  ---------------------------------------------------
  free energy    TOTEN  =       -14.79340624 eV

  energy without entropy =      -14.79340624  energy(sigma->0) =      -14.79340624


--------------------------------------------------------------------------------------------------------




----------------------------------------- Iteration    1(   9)  ---------------------------------------


    POTLOK:  cpu time    0.0400: real time    0.0415
    SETDIJ:  cpu time    0.0000: real time    0.0019
     EDDAV:  cpu time    0.0760: real time    0.0747
       DOS:  cpu time    0.0000: real time    0.0001
    CHARGE:  cpu time    0.0160: real time    0.0164
    MIXING:  cpu time    0.0040: real time    0.0013
    --------------------------------------------
      LOOP:  cpu time    0.1400: real time    0.1417

 eigenvalue-minimisations  :    64
 total energy-change (2. order) : 0.8944657E-03  (-0.4733924E-03)
 number of electron      10.0000102 magnetization 
 augmentation part        0.6527445 magnetization 

 Broyden mixing:
  rms(total) = 0.63696E-02    rms(broyden)= 0.63652E-02
  rms(prec ) = 0.14617E-01
  weight for this iteration     100.00

 eigenvalues of (default mixing * dielectric matrix)
  average eigenvalue GAMMA=   1.5042
  2.4449  0.7196  1.1164  1.7361

 Free energy of the ion-electron system (eV)
  ---------------------------------------------------
  alpha Z        PSCENC =         0.85010715
  Ewald energy   TEWEN  =        48.90784304
  -Hartree energ DENC   =      -532.53644960
  -exchange      EXHF   =         0.00000000
  -V(xc)+E(xc)   XCENC  =        41.04753127
  PAW double counting   =       376.76980462     -379.88014372
  entropy T*S    EENTRO =        -0.00000000
  eigenvalues    EBANDS =      -149.34162444
  atomic energy  EATOM  =       579.39041991
  Solvation  Ediel_sol  =         0.00000000
  ---------------------------------------------------
  free energy    TOTEN  =       -14.79251177 eV

  energy without entropy =      -14.79251177  energy(sigma->0) =      -14.79251177


--------------------------------------------------------------------------------------------------------




----------------------------------------- Iteration    1(  10)  ---------------------------------------


    POTLOK:  cpu time    0.0400: real time    0.0413
    SETDIJ:  cpu time    0.0040: real time    0.0019
     EDDAV:  cpu time    0.0760: real time    0.0752
       DOS:  cpu time    0.0000: real time    0.0001
    CHARGE:  cpu time    0.0160: real time    0.0164
    MIXING:  cpu time    0.0000: real time    0.0014
    --------------------------------------------
      LOOP:  cpu time    0.1360: real time    0.1444

 eigenvalue-minimisations  :    64
 total energy-change (2. order) :-0.9981322E-03  (-0.3258655E-04)
 number of electron      10.0000102 magnetization 
 augmentation part        0.6532506 magnetization 

 Broyden mixing:
  rms(total) = 0.33992E-02    rms(broyden)= 0.33982E-02
  rms(prec ) = 0.95150E-02
  weight for this iteration     100.00

 eigenvalues of (default mixing * dielectric matrix)
  average eigenvalue GAMMA=   1.7634
  0.7205  1.0059  2.9853  2.4556  1.6496

 Free energy of the ion-electron system (eV)
  ---------------------------------------------------
  alpha Z        PSCENC =         0.85010715
  Ewald energy   TEWEN  =        48.90784304
  -Hartree energ DENC   =      -532.66466463
  -exchange      EXHF   =         0.00000000
  -V(xc)+E(xc)   XCENC  =        41.05210680
  PAW double counting   =       377.22582648     -380.32921929
  entropy T*S    EENTRO =        -0.00000000
  eigenvalues    EBANDS =      -149.22592936
  atomic energy  EATOM  =       579.39041991
  Solvation  Ediel_sol  =         0.00000000
  ---------------------------------------------------
  free energy    TOTEN  =       -14.79350990 eV

  energy without entropy =      -14.79350990  energy(sigma->0) =      -14.79350990


--------------------------------------------------------------------------------------------------------




----------------------------------------- Iteration    1(  11)  ---------------------------------------


    POTLOK:  cpu time    0.0400: real time    0.0406
    SETDIJ:  cpu time    0.0000: real time    0.0019
     EDDAV:  cpu time    0.0560: real time    0.0562
       DOS:  cpu time    0.0000: real time    0.0001
    CHARGE:  cpu time    0.0200: real time    0.0164
    MIXING:  cpu time    0.0000: real time    0.0014
    --------------------------------------------
      LOOP:  cpu time    0.1200: real time    0.1244

 eigenvalue-minimisations  :    48
 total energy-change (2. order) :-0.2325246E-02  (-0.4958968E-04)
 number of electron      10.0000102 magnetization 
 augmentation part        0.6530384 magnetization 

 Broyden mixing:
  rms(total) = 0.14016E-02    rms(broyden)= 0.14015E-02
  rms(prec ) = 0.32676E-02
  weight for this iteration     100.00

 eigenvalues of (default mixing * dielectric matrix)
  average eigenvalue GAMMA=   1.8310
  3.4313  2.4009  0.7205  0.9993  1.7169  1.7169

 Free energy of the ion-electron system (eV)
  ---------------------------------------------------
  alpha Z        PSCENC =         0.85010715
  Ewald energy   TEWEN  =        48.90784304
  -Hartree energ DENC   =      -533.00681264
  -exchange      EXHF   =         0.00000000
  -V(xc)+E(xc)   XCENC  =        41.06367372
  PAW double counting   =       376.85199849     -379.95151531
  entropy T*S    EENTRO =        -0.00000000
  eigenvalues    EBANDS =      -148.90154950
  atomic energy  EATOM  =       579.39041991
  Solvation  Ediel_sol  =         0.00000000
  ---------------------------------------------------
  free energy    TOTEN  =       -14.79583515 eV

  energy without entropy =      -14.79583515  energy(sigma->0) =      -14.79583515


--------------------------------------------------------------------------------------------------------




----------------------------------------- Iteration    1(  12)  ---------------------------------------


    POTLOK:  cpu time    0.0400: real time    0.0404
    SETDIJ:  cpu time    0.0040: real time    0.0019
     EDDAV:  cpu time    0.0360: real time    0.0379
       DOS:  cpu time    0.0000: real time    0.0001
    CHARGE:  cpu time    0.0160: real time    0.0163
    MIXING:  cpu time    0.0000: real time    0.0015
    --------------------------------------------
      LOOP:  cpu time    0.1000: real time    0.1070

 eigenvalue-minimisations  :    32
 total energy-change (2. order) :-0.9826374E-03  (-0.1109058E-04)
 number of electron      10.0000102 magnetization 
 augmentation part        0.6529806 magnetization 

 Broyden mixing:
  rms(total) = 0.61420E-03    rms(broyden)= 0.61407E-03
  rms(prec ) = 0.14900E-02
  weight for this iteration     100.00

 eigenvalues of (default mixing * dielectric matrix)
  average eigenvalue GAMMA=   2.0609
  4.9841  2.6715  2.4073  1.6518  0.7204  0.9711  1.0203

 Free energy of the ion-electron system (eV)
  ---------------------------------------------------
  alpha Z        PSCENC =         0.85010715
  Ewald energy   TEWEN  =        48.90784304
  -Hartree energ DENC   =      -533.01494244
  -exchange      EXHF   =         0.00000000
  -V(xc)+E(xc)   XCENC  =        41.06197992
  PAW double counting   =       376.82192608     -379.92310724
  entropy T*S    EENTRO =        -0.00000000
  eigenvalues    EBANDS =      -148.89104421
  atomic energy  EATOM  =       579.39041991
  Solvation  Ediel_sol  =         0.00000000
  ---------------------------------------------------
  free energy    TOTEN  =       -14.79681779 eV

  energy without entropy =      -14.79681779  energy(sigma->0) =      -14.79681779


--------------------------------------------------------------------------------------------------------




----------------------------------------- Iteration    1(  13)  ---------------------------------------


    POTLOK:  cpu time    0.0440: real time    0.0403
    SETDIJ:  cpu time    0.0000: real time    0.0019
     EDDAV:  cpu time    0.0360: real time    0.0378
       DOS:  cpu time    0.0040: real time    0.0001
    CHARGE:  cpu time    0.0160: real time    0.0164
    MIXING:  cpu time    0.0000: real time    0.0016
    --------------------------------------------
      LOOP:  cpu time    0.1000: real time    0.1046

 eigenvalue-minimisations  :    32
 total energy-change (2. order) :-0.3738045E-03  (-0.5311682E-05)
 number of electron      10.0000102 magnetization 
 augmentation part        0.6530087 magnetization 

 Broyden mixing:
  rms(total) = 0.31078E-03    rms(broyden)= 0.31072E-03
  rms(prec ) = 0.64962E-03
  weight for this iteration     100.00

 eigenvalues of (default mixing * dielectric matrix)
  average eigenvalue GAMMA=   2.3024
  5.9366  3.2649  2.4578  2.3734  1.6613  0.7204  0.9823  1.0223

 Free energy of the ion-electron system (eV)
  ---------------------------------------------------
  alpha Z        PSCENC =         0.85010715
  Ewald energy   TEWEN  =        48.90784304
  -Hartree energ DENC   =      -533.02089686
  -exchange      EXHF   =         0.00000000
  -V(xc)+E(xc)   XCENC  =        41.06150843
  PAW double counting   =       376.80032368     -379.90255954
  entropy T*S    EENTRO =        -0.00000000
  eigenvalues    EBANDS =      -148.88393739
  atomic energy  EATOM  =       579.39041991
  Solvation  Ediel_sol  =         0.00000000
  ---------------------------------------------------
  free energy    TOTEN  =       -14.79719159 eV

  energy without entropy =      -14.79719159  energy(sigma->0) =      -14.79719159


--------------------------------------------------------------------------------------------------------




----------------------------------------- Iteration    1(  14)  ---------------------------------------


    POTLOK:  cpu time    0.0400: real time    0.0407
    SETDIJ:  cpu time    0.0000: real time    0.0019
     EDDAV:  cpu time    0.0400: real time    0.0379
       DOS:  cpu time    0.0000: real time    0.0001
    CHARGE:  cpu time    0.0160: real time    0.0163
    MIXING:  cpu time    0.0000: real time    0.0016
    --------------------------------------------
      LOOP:  cpu time    0.1000: real time    0.1048

 eigenvalue-minimisations  :    32
 total energy-change (2. order) :-0.1852702E-03  (-0.2513658E-05)
 number of electron      10.0000102 magnetization 
 augmentation part        0.6530201 magnetization 

 Broyden mixing:
  rms(total) = 0.14190E-03    rms(broyden)= 0.14180E-03
  rms(prec ) = 0.26066E-03
  weight for this iteration     100.00

 eigenvalues of (default mixing * dielectric matrix)
  average eigenvalue GAMMA=   2.2235
  6.0904  3.5751  2.4796  2.4387  1.6435  0.7204  0.9831  1.0405  1.0405

 Free energy of the ion-electron system (eV)
  ---------------------------------------------------
  alpha Z        PSCENC =         0.85010715
  Ewald energy   TEWEN  =        48.90784304
  -Hartree energ DENC   =      -533.01545824
  -exchange      EXHF   =         0.00000000
  -V(xc)+E(xc)   XCENC  =        41.06105869
  PAW double counting   =       376.84178726     -379.94353547
  entropy T*S    EENTRO =        -0.00000000
  eigenvalues    EBANDS =      -148.88959920
  atomic energy  EATOM  =       579.39041991
  Solvation  Ediel_sol  =         0.00000000
  ---------------------------------------------------
  free energy    TOTEN  =       -14.79737686 eV

  energy without entropy =      -14.79737686  energy(sigma->0) =      -14.79737686


--------------------------------------------------------------------------------------------------------




----------------------------------------- Iteration    1(  15)  ---------------------------------------


    POTLOK:  cpu time    0.0400: real time    0.0411
    SETDIJ:  cpu time    0.0000: real time    0.0019
     EDDAV:  cpu time    0.0360: real time    0.0378
       DOS:  cpu time    0.0000: real time    0.0001
    --------------------------------------------
      LOOP:  cpu time    0.0840: real time    0.0866

 eigenvalue-minimisations  :    32
 total energy-change (2. order) :-0.1891932E-04  (-0.1348631E-06)
 number of electron      10.0000102 magnetization 
 augmentation part        0.6530201 magnetization 

 Free energy of the ion-electron system (eV)
  ---------------------------------------------------
  alpha Z        PSCENC =         0.85010715
  Ewald energy   TEWEN  =        48.90784304
  -Hartree energ DENC   =      -533.00847106
  -exchange      EXHF   =         0.00000000
  -V(xc)+E(xc)   XCENC  =        41.06071666
  PAW double counting   =       376.83325530     -379.93489866
  entropy T*S    EENTRO =        -0.00000000
  eigenvalues    EBANDS =      -148.89636811
  atomic energy  EATOM  =       579.39041991
  Solvation  Ediel_sol  =         0.00000000
  ---------------------------------------------------
  free energy    TOTEN  =       -14.79739578 eV

  energy without entropy =      -14.79739578  energy(sigma->0) =      -14.79739578


--------------------------------------------------------------------------------------------------------




 average (electrostatic) potential at core
  the test charge radii are     0.7215  0.6991
  (the norm of the test charge is              1.0000)
       1 -83.2938       2 -61.3942
 
 
 
 E-fermi :  -7.7439     XC(G=0):  -1.1737     alpha+bet : -0.3423


 k-point     1 :       0.0000    0.0000    0.0000
  band No.  band energies     occupation 
      1     -28.9880      2.00000
      2     -13.7639      2.00000
      3     -11.4656      2.00000
      4     -11.4656      2.00000
      5      -8.7651      2.00000
      6      -1.8503      0.00000
      7      -1.8503      0.00000
      8      -0.2449      0.00000
      9       1.7117      0.00000
     10       1.8805      0.00000
     11       1.8805      0.00000
     12       1.9432      0.00000
     13       1.9465      0.00000
     14       2.4768      0.00000
     15       3.6939      0.00000
     16       4.1021      0.00000


--------------------------------------------------------------------------------------------------------


 soft charge-density along one line, spin component           1
         0         1         2         3         4         5         6         7         8         9
 total charge-density along one line
 
 pseudopotential strength for first ion, spin component:           1
 14.194  -0.592   0.000  -0.147  -0.000  -0.000   0.008   0.000
 -0.592   0.133  -0.000   0.017   0.000   0.000  -0.003  -0.000
  0.000  -0.000 -11.002   0.000   0.000   0.414  -0.000  -0.000
 -0.147   0.017   0.000 -11.146   0.000  -0.000   0.433  -0.000
 -0.000   0.000   0.000   0.000 -11.002  -0.000  -0.000   0.414
 -0.000   0.000   0.414  -0.000  -0.000   0.088   0.000   0.000
  0.008  -0.003  -0.000   0.433  -0.000   0.000   0.084   0.000
  0.000  -0.000  -0.000  -0.000   0.414   0.000   0.000   0.088
 total augmentation occupancy for first ion, spin component:           1
  1.945   0.177   0.000  -0.091  -0.000   0.000   0.089  -0.000
  0.177   0.065   0.000   0.202   0.000  -0.000   0.061   0.000
  0.000   0.000   1.461  -0.000   0.000   0.141   0.000  -0.000
 -0.091   0.202  -0.000   1.784   0.000   0.000   0.276   0.000
 -0.000   0.000   0.000   0.000   1.461   0.000   0.000   0.141
  0.000  -0.000   0.141   0.000   0.000   0.014   0.000   0.000
  0.089   0.061   0.000   0.276   0.000   0.000   0.065   0.000
 -0.000   0.000  -0.000   0.000   0.141   0.000   0.000   0.014


------------------------ aborting loop because EDIFF is reached ----------------------------------------


 


 total charge     
 
# of ion     s       p       d       tot
----------------------------------------
  1        1.654   3.550   0.000   5.204
  2        1.042   1.437   0.000   2.479
------------------------------------------------
tot        2.696   4.987   0.000   7.683
 
    CHARGE:  cpu time    0.0160: real time    0.0147
    FORLOC:  cpu time    0.0040: real time    0.0022
    FORNL :  cpu time    0.0000: real time    0.0026
    STRESS:  cpu time    0.0760: real time    0.0766
    FORHAR:  cpu time    0.0080: real time    0.0098
    MIXING:  cpu time    0.0040: real time    0.0019
    OFIELD:  cpu time    0.0000: real time    0.0001

  FORCE on cell =-STRESS in cart. coord.  units (eV):
  Direction    XX          YY          ZZ          XY          YZ          ZX
  --------------------------------------------------------------------------------------
  Alpha Z     0.85011     0.85011     0.85011
  Ewald     -86.00472   -86.00472   220.91723    -0.00000     0.00000     0.00000
  Hartree   140.53736   140.53736   251.93167    -0.00000    -0.00000    -0.00000
  E(xc)     -43.74041   -43.74041   -42.56092    -0.00000    -0.00000     0.00000
  Local    -190.95451  -190.95451  -582.89162     0.00000    -0.00000    -0.00000
  n-local   -18.44612   -18.44612   -29.75968    -0.00000     0.00000     0.00000
  augment     6.22567     6.22567     5.74336    -0.00000     0.00000     0.00000
  Kinetic   190.76233   190.76233   175.09555    -0.00000    -0.00000    -0.00000
  Fock        0.00000     0.00000     0.00000     0.00000     0.00000     0.00000
  -------------------------------------------------------------------------------------
  Total      -0.77029    -0.77029    -0.67430     0.00000    -0.00000     0.00000
  in kB      -2.41042    -2.41042    -2.11006     0.00000    -0.00000     0.00000
  external pressure =       -2.31 kB  Pullay stress =        0.00 kB


 VOLUME and BASIS-vectors are now :
 -----------------------------------------------------------------------------
  energy-cutoff  :      400.00
  volume of cell :      512.00
      direct lattice vectors                 reciprocal lattice vectors
     8.000000000  0.000000000  0.000000000     0.125000000  0.000000000  0.000000000
     0.000000000  8.000000000  0.000000000     0.000000000  0.125000000  0.000000000
     0.000000000  0.000000000  8.000000000     0.000000000  0.000000000  0.125000000

  length of vectors
     8.000000000  8.000000000  8.000000000     0.125000000  0.125000000  0.125000000


 FORCES acting on ions
    electron-ion (+dipol)            ewald-force                    non-local-force                 convergence-correction
 -----------------------------------------------------------------------------------------------
   -.538E-15 0.000E+00 0.201E+03   -.124E-15 -.155E-15 -.261E+03   0.000E+00 0.000E+00 0.595E+02   -.239E-13 -.315E-13 0.180E-03
   -.121E-14 0.199E-12 -.233E+03   0.127E-15 0.121E-15 0.261E+03   0.529E-22 -.529E-22 -.281E+02   -.277E-14 -.268E-14 -.129E-02
 -----------------------------------------------------------------------------------------------
   -.175E-14 0.199E-12 -.315E+02   0.264E-17 -.340E-16 0.000E+00   0.529E-22 -.529E-22 0.315E+02   -.266E-13 -.342E-13 -.111E-02
 
 
 POSITION                                       TOTAL-FORCE (eV/Angst)
 -----------------------------------------------------------------------------------
      0.00000      0.00000      0.00000         0.000000     -0.000000     -0.063077
      0.00000      0.00000      1.14300         0.000000      0.000000      0.063077
 -----------------------------------------------------------------------------------
    total drift:                               -0.000000      0.000000     -0.003917


--------------------------------------------------------------------------------------------------------



  FREE ENERGIE OF THE ION-ELECTRON SYSTEM (eV)
  ---------------------------------------------------
  free  energy   TOTEN  =       -14.79739578 eV

  energy  without entropy=      -14.79739578  energy(sigma->0) =      -14.79739578
 


--------------------------------------------------------------------------------------------------------


    POTLOK:  cpu time    0.0440: real time    0.0458


--------------------------------------------------------------------------------------------------------


 writing wavefunctions
     LOOP+:  cpu time    3.4442: real time    3.5709
    4ORBIT:  cpu time    0.0000: real time    0.0000
 


 total charge     
 
# of ion     s       p       d       tot
----------------------------------------
  1        1.654   3.550   0.000   5.204
  2        1.042   1.437   0.000   2.479
------------------------------------------------
tot        2.696   4.987   0.000   7.683
 

 total amount of memory used by VASP on root node    37433. kBytes
========================================================================

   base      :      30000. kBytes
   nonl-proj :       1492. kBytes
   fftplans  :       1377. kBytes
   grid      :       4409. kBytes
   one-center:          6. kBytes
   wavefun   :        149. kBytes
 
  
  
 General timing and accounting informations for this job:
 ========================================================
  
                  Total CPU time used (sec):        6.844
                            User time (sec):        3.920
                          System time (sec):        2.924
                         Elapsed time (sec):        7.088
  
                   Maximum memory used (kb):       36652.
                   Average memory used (kb):           0.
  
                          Minor page faults:        10660
                          Major page faults:            0
                 Voluntary context switches:          589
