PROCAR lm decomposed
# of k-points:    1         # of bands:  16         # of ions:   2

 k-point    1 :    0.00000000 0.00000000 0.00000000     weight = 1.00000000

band   1 # energy  -28.98802312 # occ.  2.00000000
 
ion      s     py     pz     px    dxy    dyz    dz2    dxz    dx2    tot
  1  0.658  0.000  0.099  0.000  0.000  0.000  0.000  0.000  0.000  0.757
  2  0.162  0.000  0.126  0.000  0.000  0.000  0.000  0.000  0.000  0.288
tot  0.820  0.000  0.225  0.000  0.000  0.000  0.000  0.000  0.000  1.045
 
band   2 # energy  -13.76393361 # occ.  2.00000000
 
ion      s     py     pz     px    dxy    dyz    dz2    dxz    dx2    tot
  1  0.168  0.000  0.449  0.000  0.000  0.000  0.000  0.000  0.000  0.617
  2  0.187  0.000  0.018  0.000  0.000  0.000  0.000  0.000  0.000  0.205
tot  0.355  0.000  0.467  0.000  0.000  0.000  0.000  0.000  0.000  0.822
 
band   3 # energy  -11.46556798 # occ.  2.00000000
 
ion      s     py     pz     px    dxy    dyz    dz2    dxz    dx2    tot
  1  0.000  0.322  0.000  0.224  0.000  0.000  0.000  0.000  0.000  0.546
  2  0.000  0.093  0.000  0.064  0.000  0.000  0.000  0.000  0.000  0.157
tot  0.000  0.415  0.000  0.288  0.000  0.000  0.000  0.000  0.000  0.703
 
band   4 # energy  -11.46556798 # occ.  2.00000000
 
ion      s     py     pz     px    dxy    dyz    dz2    dxz    dx2    tot
  1  0.000  0.224  0.000  0.322  0.000  0.000  0.000  0.000  0.000  0.546
  2  0.000  0.064  0.000  0.093  0.000  0.000  0.000  0.000  0.000  0.157
tot  0.000  0.288  0.000  0.415  0.000  0.000  0.000  0.000  0.000  0.703
 
band   5 # energy   -8.76509137 # occ.  2.00000000
 
ion      s     py     pz     px    dxy    dyz    dz2    dxz    dx2    tot
  1  0.001  0.000  0.135  0.000  0.000  0.000  0.000  0.000  0.000  0.136
  2  0.172  0.000  0.261  0.000  0.000  0.000  0.000  0.000  0.000  0.433
tot  0.173  0.000  0.396  0.000  0.000  0.000  0.000  0.000  0.000  0.569
 
band   6 # energy   -1.85031126 # occ.  0.00000000
 
ion      s     py     pz     px    dxy    dyz    dz2    dxz    dx2    tot
  1  0.000  0.044  0.000  0.161  0.000  0.000  0.000  0.000  0.000  0.205
  2  0.000  0.068  0.000  0.245  0.000  0.000  0.000  0.000  0.000  0.313
tot  0.000  0.112  0.000  0.406  0.000  0.000  0.000  0.000  0.000  0.518
 
band   7 # energy   -1.85031126 # occ.  0.00000000
 
ion      s     py     pz     px    dxy    dyz    dz2    dxz    dx2    tot
  1  0.000  0.161  0.000  0.044  0.000  0.000  0.000  0.000  0.000  0.205
  2  0.000  0.245  0.000  0.068  0.000  0.000  0.000  0.000  0.000  0.313
tot  0.000  0.406  0.000  0.112  0.000  0.000  0.000  0.000  0.000  0.518
 
band   8 # energy   -0.24490268 # occ.  0.00000000
 
ion      s     py     pz     px    dxy    dyz    dz2    dxz    dx2    tot
  1  0.004  0.000  0.004  0.000  0.000  0.000  0.000  0.000  0.000  0.007
  2  0.008  0.000  0.008  0.000  0.000  0.000  0.000  0.000  0.000  0.016
tot  0.012  0.000  0.012  0.000  0.000  0.000  0.000  0.000  0.000  0.024
 
band   9 # energy    1.71170273 # occ.  0.00000000
 
ion      s     py     pz     px    dxy    dyz    dz2    dxz    dx2    tot
  1  0.009  0.000  0.000  0.000  0.000  0.000  0.000  0.000  0.000  0.009
  2  0.001  0.000  0.000  0.000  0.000  0.000  0.000  0.000  0.000  0.001
tot  0.010  0.000  0.000  0.000  0.000  0.000  0.000  0.000  0.000  0.010
 
band  10 # energy    1.88046008 # occ.  0.00000000
 
ion      s     py     pz     px    dxy    dyz    dz2    dxz    dx2    tot
  1  0.000  0.000  0.000  0.001  0.000  0.000  0.000  0.000  0.000  0.001
  2  0.000  0.013  0.000  0.020  0.000  0.000  0.000  0.000  0.000  0.033
tot  0.000  0.013  0.000  0.021  0.000  0.000  0.000  0.000  0.000  0.034
 
band  11 # energy    1.88046008 # occ.  0.00000000
 
ion      s     py     pz     px    dxy    dyz    dz2    dxz    dx2    tot
  1  0.000  0.001  0.000  0.000  0.000  0.000  0.000  0.000  0.000  0.001
  2  0.000  0.020  0.000  0.013  0.000  0.000  0.000  0.000  0.000  0.033
tot  0.000  0.021  0.000  0.013  0.000  0.000  0.000  0.000  0.000  0.034
 
band  12 # energy    1.94318803 # occ.  0.00000000
 
ion      s     py     pz     px    dxy    dyz    dz2    dxz    dx2    tot
  1  0.000  0.000  0.000  0.000  0.000  0.000  0.000  0.000  0.000  0.000
  2  0.000  0.000  0.000  0.000  0.000  0.000  0.000  0.000  0.000  0.000
tot  0.000  0.000  0.000  0.000  0.000  0.000  0.000  0.000  0.000  0.000
 
band  13 # energy    1.94648052 # occ.  0.00000000
 
ion      s     py     pz     px    dxy    dyz    dz2    dxz    dx2    tot
  1  0.005  0.000  0.003  0.000  0.000  0.000  0.000  0.000  0.000  0.008
  2  0.004  0.000  0.000  0.000  0.000  0.000  0.000  0.000  0.000  0.004
tot  0.009  0.000  0.003  0.000  0.000  0.000  0.000  0.000  0.000  0.012
 
band  14 # energy    2.47678462 # occ.  0.00000000
 
ion      s     py     pz     px    dxy    dyz    dz2    dxz    dx2    tot
  1  0.004  0.000  0.003  0.000  0.000  0.000  0.000  0.000  0.000  0.006
  2  0.014  0.000  0.010  0.000  0.000  0.000  0.000  0.000  0.000  0.024
tot  0.017  0.000  0.013  0.000  0.000  0.000  0.000  0.000  0.000  0.030
 
band  15 # energy    3.69394357 # occ.  0.00000000
 
ion      s     py     pz     px    dxy    dyz    dz2    dxz    dx2    tot
  1  0.000  0.000  0.000  0.000  0.000  0.000  0.000  0.000  0.000  0.000
  2  0.000  0.000  0.000  0.000  0.000  0.000  0.000  0.000  0.000  0.000
tot  0.000  0.000  0.000  0.000  0.000  0.000  0.000  0.000  0.000  0.000
 
band  16 # energy    4.10213817 # occ.  0.00000000
 
ion      s     py     pz     px    dxy    dyz    dz2    dxz    dx2    tot
  1  0.009  0.000  0.001  0.000  0.000  0.000  0.000  0.000  0.000  0.010
  2  0.002  0.000  0.000  0.000  0.000  0.000  0.000  0.000  0.000  0.002
tot  0.011  0.000  0.001  0.000  0.000  0.000  0.000  0.000  0.000  0.012
 
