<?xml version="1.0" encoding="ISO-8859-1"?>
<modeling>
 <generator>
  <i name="program" type="string">vasp </i>
  <i name="version" type="string">5.4.1  </i>
  <i name="subversion" type="string">24Jun15 (build Apr 04 2016 10:44:54) complex                          parallel </i>
  <i name="platform" type="string">Titan </i>
  <i name="date" type="string">2018 12 04 </i>
  <i name="time" type="string">13:36:45 </i>
 </generator>
 <incar>
  <i type="string" name="SYSTEM"> CO dimer in a box</i>
  <i type="string" name="PREC">normal</i>
  <i type="int" name="ISMEAR">     0</i>
  <i type="logical" name="LORBIT"> F  </i>
  <v type="int" name="KPOINT_BSE">    -1     0     0     0</v>
 </incar>
 <kpoints>
  <varray name="kpointlist" >
   <v>       0.00000000       0.00000000       0.00000000 </v>
  </varray>
  <varray name="weights" >
   <v>       1.00000000 </v>
  </varray>
 </kpoints>
 <parameters>
  <separator name="general" >
   <i type="string" name="SYSTEM">CO dimer in a box</i>
   <i type="logical" name="LCOMPAT"> F  </i>
  </separator>
  <separator name="electronic" >
   <i type="string" name="PREC">normal</i>
   <i name="ENMAX">    400.00000000</i>
   <i name="ENAUG">    644.87300000</i>
   <i name="EDIFF">      0.00010000</i>
   <i type="int" name="IALGO">    38</i>
   <i type="int" name="IWAVPR">    10</i>
   <i type="int" name="NBANDS">    16</i>
   <i name="NELECT">     10.00000000</i>
   <i type="int" name="TURBO">     0</i>
   <i type="int" name="IRESTART">     0</i>
   <i type="int" name="NREBOOT">     0</i>
   <i type="int" name="NMIN">     0</i>
   <i name="EREF">      0.00000000</i>
   <separator name="electronic smearing" >
    <i type="int" name="ISMEAR">     0</i>
    <i name="SIGMA">      0.20000000</i>
    <i name="KSPACING">      0.50000000</i>
    <i type="logical" name="KGAMMA"> T  </i>
   </separator>
   <separator name="electronic projectors" >
    <i type="logical" name="LREAL"> F  </i>
    <v name="ROPT">      0.00000000      0.00000000</v>
    <i type="int" name="LMAXPAW">  -100</i>
    <i type="int" name="LMAXMIX">     2</i>
    <i type="logical" name="NLSPLINE"> F  </i>
   </separator>
   <separator name="electronic startup" >
    <i type="int" name="ISTART">     0</i>
    <i type="int" name="ICHARG">     2</i>
    <i type="int" name="INIWAV">     1</i>
   </separator>
   <separator name="electronic spin" >
    <i type="int" name="ISPIN">     1</i>
    <i type="logical" name="LNONCOLLINEAR"> F  </i>
    <v name="MAGMOM">      1.00000000      1.00000000</v>
    <i name="NUPDOWN">     -1.00000000</i>
    <i type="logical" name="LSORBIT"> F  </i>
    <v name="SAXIS">      0.00000000      0.00000000      1.00000000</v>
    <i type="logical" name="LSPIRAL"> F  </i>
    <v name="QSPIRAL">      0.00000000      0.00000000      0.00000000</v>
    <i type="logical" name="LZEROZ"> F  </i>
   </separator>
   <separator name="electronic exchange-correlation" >
    <i type="logical" name="LASPH"> F  </i>
    <i type="logical" name="LMETAGGA"> F  </i>
   </separator>
   <separator name="electronic convergence" >
    <i type="int" name="NELM">    60</i>
    <i type="int" name="NELMDL">    -5</i>
    <i type="int" name="NELMIN">     2</i>
    <i name="ENINI">    400.00000000</i>
    <separator name="electronic convergence detail" >
     <i type="logical" name="LDIAG"> T  </i>
     <i type="logical" name="LSUBROT"> F  </i>
     <i name="WEIMIN">      0.00000000</i>
     <i name="EBREAK">      0.00000156</i>
     <i name="DEPER">      0.30000000</i>
     <i type="int" name="NRMM">     4</i>
     <i name="TIME">      0.40000000</i>
    </separator>
   </separator>
   <separator name="electronic mixer" >
    <i name="AMIX">      0.40000000</i>
    <i name="BMIX">      1.00000000</i>
    <i name="AMIN">      0.10000000</i>
    <i name="AMIX_MAG">      1.60000000</i>
    <i name="BMIX_MAG">      1.00000000</i>
    <separator name="electronic mixer details" >
     <i type="int" name="IMIX">     4</i>
     <i type="logical" name="MIXFIRST"> F  </i>
     <i type="int" name="MAXMIX">   -45</i>
     <i name="WC">    100.00000000</i>
     <i type="int" name="INIMIX">     1</i>
     <i type="int" name="MIXPRE">     1</i>
     <i type="int" name="MREMOVE">     5</i>
    </separator>
   </separator>
   <separator name="electronic dipolcorrection" >
    <i type="logical" name="LDIPOL"> F  </i>
    <i type="logical" name="LMONO"> F  </i>
    <i type="int" name="IDIPOL">     0</i>
    <i name="EPSILON">      1.00000000</i>
    <v name="DIPOL">   -100.00000000   -100.00000000   -100.00000000</v>
    <i name="EFIELD">      0.00000000</i>
   </separator>
  </separator>
  <separator name="grids" >
   <i type="int" name="NGX">    40</i>
   <i type="int" name="NGY">    40</i>
   <i type="int" name="NGZ">    40</i>
   <i type="int" name="NGXF">    80</i>
   <i type="int" name="NGYF">    80</i>
   <i type="int" name="NGZF">    80</i>
   <i type="logical" name="ADDGRID"> F  </i>
  </separator>
  <separator name="ionic" >
   <i type="int" name="NSW">     0</i>
   <i type="int" name="IBRION">    -1</i>
   <i type="int" name="ISIF">     2</i>
   <i name="PSTRESS">      0.00000000</i>
   <i name="EDIFFG">      0.00100000</i>
   <i type="int" name="NFREE">     0</i>
   <i name="POTIM">      0.50000000</i>
   <i name="SMASS">     -3.00000000</i>
   <i name="SCALEE">      1.00000000</i>
  </separator>
  <separator name="ionic md" >
   <i name="TEBEG">      0.00010000</i>
   <i name="TEEND">      0.00010000</i>
   <i type="int" name="NBLOCK">     1</i>
   <i type="int" name="KBLOCK">     1</i>
   <i type="int" name="NPACO">   256</i>
   <i name="APACO">     16.00000000</i>
  </separator>
  <separator name="symmetry" >
   <i type="int" name="ISYM">     2</i>
   <i name="SYMPREC">      0.00001000</i>
  </separator>
  <separator name="dos" >
   <i type="logical" name="LORBIT"> F  </i>
   <v name="RWIGS">     -1.00000000     -1.00000000</v>
   <i type="int" name="NEDOS">   301</i>
   <i name="EMIN">     10.00000000</i>
   <i name="EMAX">    -10.00000000</i>
   <i name="EFERMI">      0.00000000</i>
  </separator>
  <separator name="writing" >
   <i type="int" name="NWRITE">     2</i>
   <i type="logical" name="LWAVE"> T  </i>
   <i type="logical" name="LCHARG"> T  </i>
   <i type="logical" name="LPARD"> F  </i>
   <i type="logical" name="LVTOT"> F  </i>
   <i type="logical" name="LVHAR"> F  </i>
   <i type="logical" name="LELF"> F  </i>
   <i type="logical" name="LOPTICS"> F  </i>
   <v name="STM">      0.00000000      0.00000000      0.00000000      0.00000000      0.00000000      0.00000000      0.00000000</v>
  </separator>
  <separator name="performance" >
   <i type="int" name="NPAR">    16</i>
   <i type="int" name="NSIM">     4</i>
   <i type="int" name="NBLK">    -1</i>
   <i type="logical" name="LPLANE"> T  </i>
   <i type="logical" name="LSCALAPACK"> T  </i>
   <i type="logical" name="LSCAAWARE"> F  </i>
   <i type="logical" name="LSCALU"> F  </i>
   <i type="logical" name="LASYNC"> F  </i>
   <i type="logical" name="LORBITALREAL"> F  </i>
  </separator>
  <separator name="miscellaneous" >
   <i type="int" name="IDIOT">     3</i>
   <i type="logical" name="LMUSIC"> F  </i>
   <v name="POMASS">     16.00000000     12.01100000</v>
   <v name="DARWINR">      0.00000000      0.00000000</v>
   <v name="DARWINV">      1.00000000      1.00000000</v>
   <i type="logical" name="LCORR"> T  </i>
  </separator>
  <i type="logical" name="GGA_COMPAT"> T  </i>
  <i type="logical" name="LBERRY"> F  </i>
  <i type="int" name="ICORELEVEL">     0</i>
  <i type="logical" name="LDAU"> F  </i>
  <i type="int" name="I_CONSTRAINED_M">     0</i>
  <separator name="electronic exchange-correlation" >
   <i type="string" name="GGA">--</i>
   <i type="int" name="VOSKOWN">     0</i>
   <i type="logical" name="LHFCALC"> F  </i>
   <i type="string" name="PRECFOCK"></i>
   <i type="logical" name="LSYMGRAD"> F  </i>
   <i type="logical" name="LHFONE"> F  </i>
   <i type="logical" name="LRHFCALC"> F  </i>
   <i type="logical" name="LTHOMAS"> F  </i>
   <i type="logical" name="LMODELHF"> F  </i>
   <i name="ENCUT4O">     -1.00000000</i>
   <i type="int" name="EXXOEP">     0</i>
   <i type="int" name="FOURORBIT">     0</i>
   <i name="AEXX">      0.00000000</i>
   <i name="HFALPHA">      0.00000000</i>
   <i name="MCALPHA">      0.00000000</i>
   <i name="ALDAX">      1.00000000</i>
   <i name="AGGAX">      1.00000000</i>
   <i name="ALDAC">      1.00000000</i>
   <i name="AGGAC">      1.00000000</i>
   <i type="int" name="NKREDX">     1</i>
   <i type="int" name="NKREDY">     1</i>
   <i type="int" name="NKREDZ">     1</i>
   <i type="logical" name="SHIFTRED"> F  </i>
   <i type="logical" name="ODDONLY"> F  </i>
   <i type="logical" name="EVENONLY"> F  </i>
   <i type="int" name="LMAXFOCK">     0</i>
   <i type="int" name="NMAXFOCKAE">     0</i>
   <i type="logical" name="LFOCKAEDFT"> F  </i>
   <i name="HFSCREEN">      0.00000000</i>
   <i name="HFSCREENC">      0.00000000</i>
   <i type="int" name="NBANDSGWLOW">     0</i>
  </separator>
  <separator name="vdW DFT" >
   <i type="logical" name="LUSE_VDW"> F  </i>
   <i name="Zab_VDW">     -0.84910000</i>
   <i name="PARAM1">      0.12340000</i>
   <i name="PARAM2">      1.00000000</i>
   <i name="PARAM3">      0.00000000</i>
  </separator>
  <separator name="model GW" >
   <i type="int" name="MODEL_GW">     0</i>
   <i name="MODEL_EPS0">    153.60000000</i>
   <i name="MODEL_ALPHA">      1.00000000</i>
  </separator>
  <separator name="linear response parameters" >
   <i type="logical" name="LEPSILON"> F  </i>
   <i type="logical" name="LRPA"> F  </i>
   <i type="logical" name="LNABLA"> F  </i>
   <i type="logical" name="LVEL"> F  </i>
   <i type="int" name="KINTER">     0</i>
   <i name="CSHIFT">      0.10000000</i>
   <i name="OMEGAMAX">     -1.00000000</i>
   <i name="DEG_THRESHOLD">      0.00200000</i>
  </separator>
  <separator name="orbital magnetization" >
   <i type="logical" name="NUCIND"> F  </i>
   <v name="MAGPOS">      0.00000000      0.00000000      0.00000000</v>
   <i type="logical" name="LNICSALL"> T  </i>
   <i type="logical" name="ORBITALMAG"> F  </i>
   <i type="logical" name="LMAGBLOCH"> F  </i>
   <i type="logical" name="LCHIMAG"> F  </i>
   <i type="logical" name="LGAUGE"> T  </i>
   <i type="int" name="MAGATOM">     0</i>
   <v name="MAGDIPOL">      0.00000000      0.00000000      0.00000000</v>
   <v name="AVECCONST">      0.00000000      0.00000000      0.00000000</v>
  </separator>
  <separator name="response functions" >
   <i type="logical" name="LADDER"> F  </i>
   <i type="logical" name="LFXC"> F  </i>
   <i type="logical" name="LHARTREE"> T  </i>
   <i type="int" name="IBSE">     0</i>
   <v type="int" name="KPOINT">    -1     0     0     0</v>
   <i type="logical" name="LTCTE"> F  </i>
   <i type="logical" name="LTETE"> F  </i>
   <i type="logical" name="LTRIPLET"> F  </i>
   <i type="logical" name="LFXCEPS"> F  </i>
   <i type="logical" name="LFXHEG"> F  </i>
   <i type="int" name="NATURALO">     0</i>
   <i type="logical" name="L2ORDER"> F  </i>
   <i type="logical" name="LUSEW"> F  </i>
   <i name="ENCUTGW">     -2.00000000</i>
   <i name="ENCUTGWSOFT">     -2.00000000</i>
   <i name="ENCUTLF">     -1.00000000</i>
   <i type="int" name="LMAXMP2">    -1</i>
   <i name="SCISSOR">      0.00000000</i>
   <i type="int" name="NOMEGA">     0</i>
   <i type="int" name="NOMEGAR">     0</i>
   <i type="int" name="NBANDSGW">    -1</i>
   <i type="int" name="NBANDSO">    -1</i>
   <i type="int" name="NBANDSV">    -1</i>
   <i type="int" name="NELM">     1</i>
   <i type="int" name="NELMHF">     1</i>
   <i type="int" name="DIM">     3</i>
   <i type="int" name="ANTIRES">     0</i>
   <i name="OMEGAMAX">    -30.00000000</i>
   <i name="OMEGAMIN">    -30.00000000</i>
   <i name="OMEGATL">   -200.00000000</i>
   <i type="int" name="OMEGAGRID">     0</i>
   <i name="CSHIFT">     -0.10000000</i>
   <i type="logical" name="SELFENERGY"> F  </i>
   <i type="logical" name="LSPECTRAL"> F  </i>
   <i type="logical" name="LSPECTRALGW"> F  </i>
   <i type="logical" name="LSINGLES"> F  </i>
   <i type="logical" name="LFERMIGW"> F  </i>
   <i type="logical" name="ODDONLYGW"> F  </i>
   <i type="logical" name="EVENONLYGW"> F  </i>
   <i type="int" name="NKREDLFX">     1</i>
   <i type="int" name="NKREDLFY">     1</i>
   <i type="int" name="NKREDLFZ">     1</i>
   <i type="int" name="MAXMEM">  1800</i>
   <i type="int" name="TELESCOPE">     0</i>
   <i type="int" name="TAUPAR">     1</i>
   <i type="int" name="OMEGAPAR">    -1</i>
   <i name="LAMBDA">      1.00000000</i>
  </separator>
  <separator name="External order field" >
   <i name="OFIELD_KAPPA">      0.00000000</i>
   <v name="OFIELD_K">      0.00000000      0.00000000      0.00000000</v>
   <i name="OFIELD_Q6_NEAR">      0.00000000</i>
   <i name="OFIELD_Q6_FAR">      0.00000000</i>
   <i name="OFIELD_A">      0.00000000</i>
  </separator>
 </parameters>
 <atominfo>
  <atoms>       2 </atoms>
  <types>       2 </types>
  <array name="atoms" >
   <dimension dim="1">ion</dimension>
   <field type="string">element</field>
   <field type="int">atomtype</field>
   <set>
    <rc><c>O </c><c>   1</c></rc>
    <rc><c>C </c><c>   2</c></rc>
   </set>
  </array>
  <array name="atomtypes" >
   <dimension dim="1">type</dimension>
   <field type="int">atomspertype</field>
   <field type="string">element</field>
   <field>mass</field>
   <field>valence</field>
   <field type="string">pseudopotential</field>
   <set>
    <rc><c>   1</c><c>O </c><c>     16.00000000</c><c>      6.00000000</c><c> PAW_RPBE O 08Apr2002                   </c></rc>
    <rc><c>   1</c><c>C </c><c>     12.01100000</c><c>      4.00000000</c><c> PAW_RPBE C 08Apr2002                   </c></rc>
   </set>
  </array>
 </atominfo>
 <structure name="initialpos" >
  <crystal>
   <varray name="basis" >
    <v>       8.00000000       0.00000000       0.00000000 </v>
    <v>       0.00000000       8.00000000       0.00000000 </v>
    <v>       0.00000000       0.00000000       8.00000000 </v>
   </varray>
   <i name="volume">    512.00000000 </i>
   <varray name="rec_basis" >
    <v>       0.12500000       0.00000000       0.00000000 </v>
    <v>       0.00000000       0.12500000       0.00000000 </v>
    <v>       0.00000000       0.00000000       0.12500000 </v>
   </varray>
  </crystal>
  <varray name="positions" >
   <v>       0.00000000       0.00000000       0.00000000 </v>
   <v>       0.00000000       0.00000000       0.14287500 </v>
  </varray>
  <varray name="selective"  type="logical" >
   <v type="logical" >  F  F  T </v>
   <v type="logical" >  F  F  T </v>
  </varray>
  <nose>
   <v>      -3.00000000       0.00000000       0.00010000       0.00010000 </v>
  </nose>
 </structure>
 <calculation>
  <scstep>
   <time name="dav">    0.04    0.04</time>
   <time name="total">    0.11    0.12</time>
   <energy>
    <i name="alphaZ">      0.85010715 </i>
    <i name="ewald">     48.90784304 </i>
    <i name="hartreedc">   -512.54826743 </i>
    <i name="XCdc">     39.84835132 </i>
    <i name="pawpsdc">    283.82984571 </i>
    <i name="pawaedc">   -286.83001101 </i>
    <i name="eentropy">     -0.00000000 </i>
    <i name="bandstr">    -97.75301892 </i>
    <i name="atom">    579.39041991 </i>
    <i name="e_fr_energy">     55.69526976 </i>
    <i name="e_wo_entrp">     55.69526976 </i>
    <i name="e_0_energy">     55.69526976 </i>
   </energy>
  </scstep>
  <scstep>
   <time name="dav">    0.04    0.04</time>
   <time name="total">    0.04    0.04</time>
   <energy>
    <i name="e_fr_energy">     -7.63393116 </i>
    <i name="e_wo_entrp">     -7.63393116 </i>
    <i name="e_0_energy">     -7.63393116 </i>
   </energy>
  </scstep>
  <scstep>
   <time name="dav">    0.08    0.08</time>
   <time name="total">    0.08    0.08</time>
   <energy>
    <i name="e_fr_energy">    -15.58728674 </i>
    <i name="e_wo_entrp">    -15.58728674 </i>
    <i name="e_0_energy">    -15.58728674 </i>
   </energy>
  </scstep>
  <scstep>
   <time name="dav">    0.04    0.04</time>
   <time name="total">    0.04    0.04</time>
   <energy>
    <i name="e_fr_energy">    -15.59534327 </i>
    <i name="e_wo_entrp">    -15.59534327 </i>
    <i name="e_0_energy">    -15.59534327 </i>
   </energy>
  </scstep>
  <scstep>
   <time name="dav">    0.08    0.07</time>
   <time name="total">    0.10    0.11</time>
   <energy>
    <i name="e_fr_energy">    -15.59537254 </i>
    <i name="e_wo_entrp">    -15.59537254 </i>
    <i name="e_0_energy">    -15.59537254 </i>
   </energy>
  </scstep>
  <scstep>
   <time name="dav">    0.04    0.04</time>
   <time name="total">    0.10    0.11</time>
   <energy>
    <i name="e_fr_energy">    -14.95888941 </i>
    <i name="e_wo_entrp">    -14.95888941 </i>
    <i name="e_0_energy">    -14.95888941 </i>
   </energy>
  </scstep>
  <scstep>
   <time name="dav">    0.08    0.08</time>
   <time name="total">    0.14    0.15</time>
   <energy>
    <i name="e_fr_energy">    -14.83161361 </i>
    <i name="e_wo_entrp">    -14.83161361 </i>
    <i name="e_0_energy">    -14.83161361 </i>
   </energy>
  </scstep>
  <scstep>
   <time name="dav">    0.08    0.07</time>
   <time name="total">    0.14    0.14</time>
   <energy>
    <i name="e_fr_energy">    -14.79340624 </i>
    <i name="e_wo_entrp">    -14.79340624 </i>
    <i name="e_0_energy">    -14.79340624 </i>
   </energy>
  </scstep>
  <scstep>
   <time name="dav">    0.08    0.07</time>
   <time name="total">    0.14    0.14</time>
   <energy>
    <i name="e_fr_energy">    -14.79251177 </i>
    <i name="e_wo_entrp">    -14.79251177 </i>
    <i name="e_0_energy">    -14.79251177 </i>
   </energy>
  </scstep>
  <scstep>
   <time name="dav">    0.08    0.08</time>
   <time name="total">    0.14    0.14</time>
   <energy>
    <i name="e_fr_energy">    -14.79350990 </i>
    <i name="e_wo_entrp">    -14.79350990 </i>
    <i name="e_0_energy">    -14.79350990 </i>
   </energy>
  </scstep>
  <scstep>
   <time name="dav">    0.06    0.06</time>
   <time name="total">    0.12    0.12</time>
   <energy>
    <i name="e_fr_energy">    -14.79583515 </i>
    <i name="e_wo_entrp">    -14.79583515 </i>
    <i name="e_0_energy">    -14.79583515 </i>
   </energy>
  </scstep>
  <scstep>
   <time name="dav">    0.04    0.04</time>
   <time name="total">    0.10    0.11</time>
   <energy>
    <i name="e_fr_energy">    -14.79681779 </i>
    <i name="e_wo_entrp">    -14.79681779 </i>
    <i name="e_0_energy">    -14.79681779 </i>
   </energy>
  </scstep>
  <scstep>
   <time name="dav">    0.04    0.04</time>
   <time name="total">    0.10    0.10</time>
   <energy>
    <i name="e_fr_energy">    -14.79719159 </i>
    <i name="e_wo_entrp">    -14.79719159 </i>
    <i name="e_0_energy">    -14.79719159 </i>
   </energy>
  </scstep>
  <scstep>
   <time name="dav">    0.04    0.04</time>
   <time name="total">    0.10    0.10</time>
   <energy>
    <i name="e_fr_energy">    -14.79737686 </i>
    <i name="e_wo_entrp">    -14.79737686 </i>
    <i name="e_0_energy">    -14.79737686 </i>
   </energy>
  </scstep>
  <scstep>
   <time name="dav">    0.04    0.04</time>
   <time name="total">    0.08    0.09</time>
   <energy>
    <i name="alphaZ">      0.85010715 </i>
    <i name="ewald">     48.90784304 </i>
    <i name="hartreedc">   -533.00847106 </i>
    <i name="XCdc">     41.06071666 </i>
    <i name="pawpsdc">    376.83325530 </i>
    <i name="pawaedc">   -379.93489866 </i>
    <i name="eentropy">     -0.00000000 </i>
    <i name="bandstr">   -148.89636811 </i>
    <i name="atom">    579.39041991 </i>
    <i name="e_fr_energy">    -14.79739578 </i>
    <i name="e_wo_entrp">    -14.79739578 </i>
    <i name="e_0_energy">    -14.79739578 </i>
   </energy>
  </scstep>
  <structure>
   <crystal>
    <varray name="basis" >
     <v>       8.00000000       0.00000000       0.00000000 </v>
     <v>       0.00000000       8.00000000       0.00000000 </v>
     <v>       0.00000000       0.00000000       8.00000000 </v>
    </varray>
    <i name="volume">    512.00000000 </i>
    <varray name="rec_basis" >
     <v>       0.12500000       0.00000000       0.00000000 </v>
     <v>       0.00000000       0.12500000       0.00000000 </v>
     <v>       0.00000000       0.00000000       0.12500000 </v>
    </varray>
   </crystal>
   <varray name="positions" >
    <v>       0.00000000       0.00000000       0.00000000 </v>
    <v>       0.00000000       0.00000000       0.14287500 </v>
   </varray>
  </structure>
  <varray name="forces" >
   <v>       0.00000000      -0.00000000      -0.06307734 </v>
   <v>       0.00000000       0.00000000       0.06307734 </v>
  </varray>
  <varray name="stress" >
   <v>      -2.41042340       0.00000000       0.00000000 </v>
   <v>       0.00000000      -2.41042340      -0.00000000 </v>
   <v>       0.00000000      -0.00000000      -2.11006403 </v>
  </varray>
  <energy>
   <i name="e_fr_energy">    -14.79739578 </i>
   <i name="e_wo_entrp">    -14.79739578 </i>
   <i name="e_0_energy">     -0.00000000 </i>
  </energy>
  <time name="totalsc">    3.44    3.57</time>
  <eigenvalues>
   <array>
    <dimension dim="1">band</dimension>
    <dimension dim="2">kpoint</dimension>
    <dimension dim="3">spin</dimension>
    <field>eigene</field>
    <field>occ</field>
    <set>
     <set comment="spin 1">
      <set comment="kpoint 1">
       <r>  -28.9880    1.0000 </r>
       <r>  -13.7639    1.0000 </r>
       <r>  -11.4656    1.0000 </r>
       <r>  -11.4656    1.0000 </r>
       <r>   -8.7651    1.0000 </r>
       <r>   -1.8503    0.0000 </r>
       <r>   -1.8503    0.0000 </r>
       <r>   -0.2449    0.0000 </r>
       <r>    1.7117    0.0000 </r>
       <r>    1.8805    0.0000 </r>
       <r>    1.8805    0.0000 </r>
       <r>    1.9432    0.0000 </r>
       <r>    1.9465    0.0000 </r>
       <r>    2.4768    0.0000 </r>
       <r>    3.6939    0.0000 </r>
       <r>    4.1021    0.0000 </r>
      </set>
     </set>
    </set>
   </array>
  </eigenvalues>
  <separator name="orbital magnetization" >
   <v name="MAGDIPOLOUT">      0.00000000      0.00000000      0.00000000</v>
  </separator>
  <dos>
   <i name="efermi">     -7.74388949 </i>
   <total>
    <array>
     <dimension dim="1">gridpoints</dimension>
     <dimension dim="2">spin</dimension>
     <field>energy</field>
     <field>total</field>
     <field>integrated</field>
     <set>
      <set comment="spin 1">
       <r>   -30.9880     0.0000     0.0000 </r>
       <r>   -30.8644     0.0000     0.0000 </r>
       <r>   -30.7408     0.0000     0.0000 </r>
       <r>   -30.6171     0.0000     0.0000 </r>
       <r>   -30.4935     0.0000     0.0000 </r>
       <r>   -30.3699     0.0000     0.0000 </r>
       <r>   -30.2462     0.0000     0.0000 </r>
       <r>   -30.1226     0.0000     0.0000 </r>
       <r>   -29.9990     0.0000     0.0000 </r>
       <r>   -29.8753     0.0000     0.0000 </r>
       <r>   -29.7517     0.0000     0.0000 </r>
       <r>   -29.6281     0.0000     0.0000 </r>
       <r>   -29.5044     0.0021     0.0003 </r>
       <r>   -29.3808     0.0422     0.0055 </r>
       <r>   -29.2571     0.4170     0.0570 </r>
       <r>   -29.1335     1.9941     0.3036 </r>
       <r>   -29.0099     4.6394     0.8772 </r>
       <r>   -28.8862     5.2664     1.5283 </r>
       <r>   -28.7626     2.9181     1.8890 </r>
       <r>   -28.6390     0.7876     1.9864 </r>
       <r>   -28.5153     0.1031     1.9992 </r>
       <r>   -28.3917     0.0065     2.0000 </r>
       <r>   -28.2681     0.0002     2.0000 </r>
       <r>   -28.1444     0.0000     2.0000 </r>
       <r>   -28.0208     0.0000     2.0000 </r>
       <r>   -27.8972     0.0000     2.0000 </r>
       <r>   -27.7735     0.0000     2.0000 </r>
       <r>   -27.6499     0.0000     2.0000 </r>
       <r>   -27.5263     0.0000     2.0000 </r>
       <r>   -27.4026     0.0000     2.0000 </r>
       <r>   -27.2790     0.0000     2.0000 </r>
       <r>   -27.1554     0.0000     2.0000 </r>
       <r>   -27.0317     0.0000     2.0000 </r>
       <r>   -26.9081     0.0000     2.0000 </r>
       <r>   -26.7845     0.0000     2.0000 </r>
       <r>   -26.6608     0.0000     2.0000 </r>
       <r>   -26.5372     0.0000     2.0000 </r>
       <r>   -26.4136     0.0000     2.0000 </r>
       <r>   -26.2899     0.0000     2.0000 </r>
       <r>   -26.1663     0.0000     2.0000 </r>
       <r>   -26.0427     0.0000     2.0000 </r>
       <r>   -25.9190     0.0000     2.0000 </r>
       <r>   -25.7954     0.0000     2.0000 </r>
       <r>   -25.6718     0.0000     2.0000 </r>
       <r>   -25.5481     0.0000     2.0000 </r>
       <r>   -25.4245     0.0000     2.0000 </r>
       <r>   -25.3009     0.0000     2.0000 </r>
       <r>   -25.1772     0.0000     2.0000 </r>
       <r>   -25.0536     0.0000     2.0000 </r>
       <r>   -24.9300     0.0000     2.0000 </r>
       <r>   -24.8063     0.0000     2.0000 </r>
       <r>   -24.6827     0.0000     2.0000 </r>
       <r>   -24.5591     0.0000     2.0000 </r>
       <r>   -24.4354     0.0000     2.0000 </r>
       <r>   -24.3118     0.0000     2.0000 </r>
       <r>   -24.1882     0.0000     2.0000 </r>
       <r>   -24.0645     0.0000     2.0000 </r>
       <r>   -23.9409     0.0000     2.0000 </r>
       <r>   -23.8173     0.0000     2.0000 </r>
       <r>   -23.6936     0.0000     2.0000 </r>
       <r>   -23.5700     0.0000     2.0000 </r>
       <r>   -23.4464     0.0000     2.0000 </r>
       <r>   -23.3227     0.0000     2.0000 </r>
       <r>   -23.1991     0.0000     2.0000 </r>
       <r>   -23.0755     0.0000     2.0000 </r>
       <r>   -22.9518     0.0000     2.0000 </r>
       <r>   -22.8282     0.0000     2.0000 </r>
       <r>   -22.7046     0.0000     2.0000 </r>
       <r>   -22.5809     0.0000     2.0000 </r>
       <r>   -22.4573     0.0000     2.0000 </r>
       <r>   -22.3337     0.0000     2.0000 </r>
       <r>   -22.2100     0.0000     2.0000 </r>
       <r>   -22.0864     0.0000     2.0000 </r>
       <r>   -21.9628     0.0000     2.0000 </r>
       <r>   -21.8391     0.0000     2.0000 </r>
       <r>   -21.7155     0.0000     2.0000 </r>
       <r>   -21.5918     0.0000     2.0000 </r>
       <r>   -21.4682     0.0000     2.0000 </r>
       <r>   -21.3446     0.0000     2.0000 </r>
       <r>   -21.2209     0.0000     2.0000 </r>
       <r>   -21.0973     0.0000     2.0000 </r>
       <r>   -20.9737     0.0000     2.0000 </r>
       <r>   -20.8500     0.0000     2.0000 </r>
       <r>   -20.7264     0.0000     2.0000 </r>
       <r>   -20.6028     0.0000     2.0000 </r>
       <r>   -20.4791     0.0000     2.0000 </r>
       <r>   -20.3555     0.0000     2.0000 </r>
       <r>   -20.2319     0.0000     2.0000 </r>
       <r>   -20.1082     0.0000     2.0000 </r>
       <r>   -19.9846     0.0000     2.0000 </r>
       <r>   -19.8610     0.0000     2.0000 </r>
       <r>   -19.7373     0.0000     2.0000 </r>
       <r>   -19.6137     0.0000     2.0000 </r>
       <r>   -19.4901     0.0000     2.0000 </r>
       <r>   -19.3664     0.0000     2.0000 </r>
       <r>   -19.2428     0.0000     2.0000 </r>
       <r>   -19.1192     0.0000     2.0000 </r>
       <r>   -18.9955     0.0000     2.0000 </r>
       <r>   -18.8719     0.0000     2.0000 </r>
       <r>   -18.7483     0.0000     2.0000 </r>
       <r>   -18.6246     0.0000     2.0000 </r>
       <r>   -18.5010     0.0000     2.0000 </r>
       <r>   -18.3774     0.0000     2.0000 </r>
       <r>   -18.2537     0.0000     2.0000 </r>
       <r>   -18.1301     0.0000     2.0000 </r>
       <r>   -18.0065     0.0000     2.0000 </r>
       <r>   -17.8828     0.0000     2.0000 </r>
       <r>   -17.7592     0.0000     2.0000 </r>
       <r>   -17.6356     0.0000     2.0000 </r>
       <r>   -17.5119     0.0000     2.0000 </r>
       <r>   -17.3883     0.0000     2.0000 </r>
       <r>   -17.2647     0.0000     2.0000 </r>
       <r>   -17.1410     0.0000     2.0000 </r>
       <r>   -17.0174     0.0000     2.0000 </r>
       <r>   -16.8938     0.0000     2.0000 </r>
       <r>   -16.7701     0.0000     2.0000 </r>
       <r>   -16.6465     0.0000     2.0000 </r>
       <r>   -16.5229     0.0000     2.0000 </r>
       <r>   -16.3992     0.0000     2.0000 </r>
       <r>   -16.2756     0.0000     2.0000 </r>
       <r>   -16.1520     0.0000     2.0000 </r>
       <r>   -16.0283     0.0000     2.0000 </r>
       <r>   -15.9047     0.0000     2.0000 </r>
       <r>   -15.7811     0.0000     2.0000 </r>
       <r>   -15.6574     0.0000     2.0000 </r>
       <r>   -15.5338     0.0000     2.0000 </r>
       <r>   -15.4102     0.0000     2.0000 </r>
       <r>   -15.2865     0.0000     2.0000 </r>
       <r>   -15.1629     0.0000     2.0000 </r>
       <r>   -15.0393     0.0000     2.0000 </r>
       <r>   -14.9156     0.0000     2.0000 </r>
       <r>   -14.7920     0.0000     2.0000 </r>
       <r>   -14.6684     0.0000     2.0000 </r>
       <r>   -14.5447     0.0000     2.0000 </r>
       <r>   -14.4211     0.0000     2.0000 </r>
       <r>   -14.2975     0.0013     2.0002 </r>
       <r>   -14.1738     0.0290     2.0038 </r>
       <r>   -14.0502     0.3171     2.0430 </r>
       <r>   -13.9265     1.6762     2.2502 </r>
       <r>   -13.8029     4.3081     2.7828 </r>
       <r>   -13.6793     5.4008     3.4505 </r>
       <r>   -13.5556     3.3053     3.8592 </r>
       <r>   -13.4320     0.9858     3.9811 </r>
       <r>   -13.3084     0.1427     3.9987 </r>
       <r>   -13.1847     0.0100     4.0000 </r>
       <r>   -13.0611     0.0003     4.0000 </r>
       <r>   -12.9375     0.0000     4.0000 </r>
       <r>   -12.8138     0.0000     4.0000 </r>
       <r>   -12.6902     0.0000     4.0000 </r>
       <r>   -12.5666     0.0000     4.0000 </r>
       <r>   -12.4429     0.0000     4.0000 </r>
       <r>   -12.3193     0.0000     4.0000 </r>
       <r>   -12.1957     0.0000     4.0000 </r>
       <r>   -12.0720     0.0003     4.0000 </r>
       <r>   -11.9484     0.0101     4.0013 </r>
       <r>   -11.8248     0.1690     4.0222 </r>
       <r>   -11.7011     1.3698     4.1915 </r>
       <r>   -11.5775     5.3849     4.8573 </r>
       <r>   -11.4539    10.3090     6.1318 </r>
       <r>   -11.3302     9.6330     7.3228 </r>
       <r>   -11.2066     4.3924     7.8658 </r>
       <r>   -11.0830     0.9747     7.9864 </r>
       <r>   -10.9593     0.1048     7.9993 </r>
       <r>   -10.8357     0.0054     8.0000 </r>
       <r>   -10.7121     0.0001     8.0000 </r>
       <r>   -10.5884     0.0000     8.0000 </r>
       <r>   -10.4648     0.0000     8.0000 </r>
       <r>   -10.3412     0.0000     8.0000 </r>
       <r>   -10.2175     0.0000     8.0000 </r>
       <r>   -10.0939     0.0000     8.0000 </r>
       <r>    -9.9703     0.0000     8.0000 </r>
       <r>    -9.8466     0.0000     8.0000 </r>
       <r>    -9.7230     0.0000     8.0000 </r>
       <r>    -9.5994     0.0000     8.0000 </r>
       <r>    -9.4757     0.0000     8.0000 </r>
       <r>    -9.3521     0.0003     8.0000 </r>
       <r>    -9.2285     0.0082     8.0011 </r>
       <r>    -9.1048     0.1233     8.0163 </r>
       <r>    -8.9812     0.8914     8.1265 </r>
       <r>    -8.8576     3.1279     8.5132 </r>
       <r>    -8.7339     5.3481     9.1744 </r>
       <r>    -8.6103     4.4639     9.7263 </r>
       <r>    -8.4867     1.8176     9.9510 </r>
       <r>    -8.3630     0.3600     9.9955 </r>
       <r>    -8.2394     0.0345     9.9998 </r>
       <r>    -8.1158     0.0016    10.0000 </r>
       <r>    -7.9921     0.0000    10.0000 </r>
       <r>    -7.8685     0.0000    10.0000 </r>
       <r>    -7.7449     0.0000    10.0000 </r>
       <r>    -7.6212     0.0000    10.0000 </r>
       <r>    -7.4976     0.0000    10.0000 </r>
       <r>    -7.3740     0.0000    10.0000 </r>
       <r>    -7.2503     0.0000    10.0000 </r>
       <r>    -7.1267     0.0000    10.0000 </r>
       <r>    -7.0031     0.0000    10.0000 </r>
       <r>    -6.8794     0.0000    10.0000 </r>
       <r>    -6.7558     0.0000    10.0000 </r>
       <r>    -6.6322     0.0000    10.0000 </r>
       <r>    -6.5085     0.0000    10.0000 </r>
       <r>    -6.3849     0.0000    10.0000 </r>
       <r>    -6.2612     0.0000    10.0000 </r>
       <r>    -6.1376     0.0000    10.0000 </r>
       <r>    -6.0140     0.0000    10.0000 </r>
       <r>    -5.8903     0.0000    10.0000 </r>
       <r>    -5.7667     0.0000    10.0000 </r>
       <r>    -5.6431     0.0000    10.0000 </r>
       <r>    -5.5194     0.0000    10.0000 </r>
       <r>    -5.3958     0.0000    10.0000 </r>
       <r>    -5.2722     0.0000    10.0000 </r>
       <r>    -5.1485     0.0000    10.0000 </r>
       <r>    -5.0249     0.0000    10.0000 </r>
       <r>    -4.9013     0.0000    10.0000 </r>
       <r>    -4.7776     0.0000    10.0000 </r>
       <r>    -4.6540     0.0000    10.0000 </r>
       <r>    -4.5304     0.0000    10.0000 </r>
       <r>    -4.4067     0.0000    10.0000 </r>
       <r>    -4.2831     0.0000    10.0000 </r>
       <r>    -4.1595     0.0000    10.0000 </r>
       <r>    -4.0358     0.0000    10.0000 </r>
       <r>    -3.9122     0.0000    10.0000 </r>
       <r>    -3.7886     0.0000    10.0000 </r>
       <r>    -3.6649     0.0000    10.0000 </r>
       <r>    -3.5413     0.0000    10.0000 </r>
       <r>    -3.4177     0.0000    10.0000 </r>
       <r>    -3.2940     0.0000    10.0000 </r>
       <r>    -3.1704     0.0000    10.0000 </r>
       <r>    -3.0468     0.0000    10.0000 </r>
       <r>    -2.9231     0.0000    10.0000 </r>
       <r>    -2.7995     0.0000    10.0000 </r>
       <r>    -2.6759     0.0000    10.0000 </r>
       <r>    -2.5522     0.0000    10.0000 </r>
       <r>    -2.4286     0.0007    10.0001 </r>
       <r>    -2.3050     0.0204    10.0026 </r>
       <r>    -2.1813     0.2903    10.0385 </r>
       <r>    -2.0577     1.9943    10.2851 </r>
       <r>    -1.9341     6.6515    11.1074 </r>
       <r>    -1.8104    10.8119    12.4441 </r>
       <r>    -1.6868     8.5794    13.5048 </r>
       <r>    -1.5632     3.3207    13.9154 </r>
       <r>    -1.4395     0.6250    13.9926 </r>
       <r>    -1.3159     0.0569    13.9997 </r>
       <r>    -1.1923     0.0025    14.0000 </r>
       <r>    -1.0686     0.0001    14.0000 </r>
       <r>    -0.9450     0.0000    14.0000 </r>
       <r>    -0.8214     0.0004    14.0000 </r>
       <r>    -0.6977     0.0107    14.0014 </r>
       <r>    -0.5741     0.1501    14.0199 </r>
       <r>    -0.4505     1.0204    14.1461 </r>
       <r>    -0.3268     3.3674    14.5624 </r>
       <r>    -0.2032     5.4157    15.2320 </r>
       <r>    -0.0796     4.2520    15.7577 </r>
       <r>     0.0441     1.6283    15.9590 </r>
       <r>     0.1677     0.3032    15.9965 </r>
       <r>     0.2913     0.0273    15.9999 </r>
       <r>     0.4150     0.0012    16.0000 </r>
       <r>     0.5386     0.0000    16.0000 </r>
       <r>     0.6622     0.0000    16.0000 </r>
       <r>     0.7859     0.0000    16.0000 </r>
       <r>     0.9095     0.0000    16.0000 </r>
       <r>     1.0331     0.0000    16.0000 </r>
       <r>     1.1568     0.0007    16.0001 </r>
       <r>     1.2804     0.0182    16.0023 </r>
       <r>     1.4041     0.2348    16.0314 </r>
       <r>     1.5277     1.5644    16.2248 </r>
       <r>     1.6513     5.9116    16.9557 </r>
       <r>     1.7750    14.2380    18.7160 </r>
       <r>     1.8986    22.5590    21.5050 </r>
       <r>     2.0222    21.5746    24.1724 </r>
       <r>     2.1459    11.4305    25.5856 </r>
       <r>     2.2695     4.0585    26.0873 </r>
       <r>     2.3931     3.7463    26.5505 </r>
       <r>     2.5168     5.4348    27.2224 </r>
       <r>     2.6404     4.2888    27.7527 </r>
       <r>     2.7640     1.6588    27.9578 </r>
       <r>     2.8877     0.3120    27.9963 </r>
       <r>     3.0113     0.0284    27.9998 </r>
       <r>     3.1349     0.0019    28.0001 </r>
       <r>     3.2586     0.0162    28.0021 </r>
       <r>     3.3822     0.2056    28.0275 </r>
       <r>     3.5058     1.2617    28.1835 </r>
       <r>     3.6295     3.7673    28.6492 </r>
       <r>     3.7531     5.5695    29.3378 </r>
       <r>     3.8767     4.6666    29.9148 </r>
       <r>     4.0004     4.2602    30.4415 </r>
       <r>     4.1240     5.4920    31.1205 </r>
       <r>     4.2476     4.6577    31.6963 </r>
       <r>     4.3713     1.9948    31.9430 </r>
       <r>     4.4949     0.4170    31.9945 </r>
       <r>     4.6185     0.0422    31.9997 </r>
       <r>     4.7422     0.0021    32.0000 </r>
       <r>     4.8658     0.0000    32.0000 </r>
       <r>     4.9894     0.0000    32.0000 </r>
       <r>     5.1131     0.0000    32.0000 </r>
       <r>     5.2367     0.0000    32.0000 </r>
       <r>     5.3603     0.0000    32.0000 </r>
       <r>     5.4840     0.0000    32.0000 </r>
       <r>     5.6076     0.0000    32.0000 </r>
       <r>     5.7312     0.0000    32.0000 </r>
       <r>     5.8549     0.0000    32.0000 </r>
       <r>     5.9785     0.0000    32.0000 </r>
       <r>     6.1021     0.0000    32.0000 </r>
      </set>
     </set>
    </array>
   </total>
   <partial>
    <array>
     <dimension dim="1">gridpoints</dimension>
     <dimension dim="2">spin</dimension>
     <dimension dim="3">ion</dimension>
     <field>energy</field>
     <field>  s</field>
     <field> py</field>
     <field> pz</field>
     <field> px</field>
     <field>dxy</field>
     <field>dyz</field>
     <field>dz2</field>
     <field>dxz</field>
     <field>dx2</field>
     <set>
      <set comment="ion 1">
       <set comment="spin 1">
        <r>   -30.9880     0.0000     0.0000     0.0000     0.0000     0.0000     0.0000     0.0000     0.0000     0.0000 </r>
        <r>   -30.8644     0.0000     0.0000     0.0000     0.0000     0.0000     0.0000     0.0000     0.0000     0.0000 </r>
        <r>   -30.7408     0.0000     0.0000     0.0000     0.0000     0.0000     0.0000     0.0000     0.0000     0.0000 </r>
        <r>   -30.6171     0.0000     0.0000     0.0000     0.0000     0.0000     0.0000     0.0000     0.0000     0.0000 </r>
        <r>   -30.4935     0.0000     0.0000     0.0000     0.0000     0.0000     0.0000     0.0000     0.0000     0.0000 </r>
        <r>   -30.3699     0.0000     0.0000     0.0000     0.0000     0.0000     0.0000     0.0000     0.0000     0.0000 </r>
        <r>   -30.2462     0.0000     0.0000     0.0000     0.0000     0.0000     0.0000     0.0000     0.0000     0.0000 </r>
        <r>   -30.1226     0.0000     0.0000     0.0000     0.0000     0.0000     0.0000     0.0000     0.0000     0.0000 </r>
        <r>   -29.9990     0.0000     0.0000     0.0000     0.0000     0.0000     0.0000     0.0000     0.0000     0.0000 </r>
        <r>   -29.8753     0.0000     0.0000     0.0000     0.0000     0.0000     0.0000     0.0000     0.0000     0.0000 </r>
        <r>   -29.7517     0.0000     0.0000     0.0000     0.0000     0.0000     0.0000     0.0000     0.0000     0.0000 </r>
        <r>   -29.6281     0.0000     0.0000     0.0000     0.0000     0.0000     0.0000     0.0000     0.0000     0.0000 </r>
        <r>   -29.5044     0.0014     0.0000     0.0002     0.0000     0.0000     0.0000     0.0000     0.0000     0.0000 </r>
        <r>   -29.3808     0.0278     0.0000     0.0042     0.0000     0.0000     0.0000     0.0000     0.0000     0.0000 </r>
        <r>   -29.2571     0.2744     0.0000     0.0411     0.0000     0.0000     0.0000     0.0000     0.0000     0.0000 </r>
        <r>   -29.1335     1.3122     0.0000     0.1964     0.0000     0.0000     0.0000     0.0000     0.0000     0.0000 </r>
        <r>   -29.0099     3.0529     0.0000     0.4570     0.0000     0.0000     0.0000     0.0000     0.0000     0.0000 </r>
        <r>   -28.8862     3.4654     0.0000     0.5188     0.0000     0.0000     0.0000     0.0000     0.0000     0.0000 </r>
        <r>   -28.7626     1.9202     0.0000     0.2874     0.0000     0.0000     0.0000     0.0000     0.0000     0.0000 </r>
        <r>   -28.6390     0.5183     0.0000     0.0776     0.0000     0.0000     0.0000     0.0000     0.0000     0.0000 </r>
        <r>   -28.5153     0.0679     0.0000     0.0102     0.0000     0.0000     0.0000     0.0000     0.0000     0.0000 </r>
        <r>   -28.3917     0.0043     0.0000     0.0006     0.0000     0.0000     0.0000     0.0000     0.0000     0.0000 </r>
        <r>   -28.2681     0.0001     0.0000     0.0000     0.0000     0.0000     0.0000     0.0000     0.0000     0.0000 </r>
        <r>   -28.1444     0.0000     0.0000     0.0000     0.0000     0.0000     0.0000     0.0000     0.0000     0.0000 </r>
        <r>   -28.0208     0.0000     0.0000     0.0000     0.0000     0.0000     0.0000     0.0000     0.0000     0.0000 </r>
        <r>   -27.8972     0.0000     0.0000     0.0000     0.0000     0.0000     0.0000     0.0000     0.0000     0.0000 </r>
        <r>   -27.7735     0.0000     0.0000     0.0000     0.0000     0.0000     0.0000     0.0000     0.0000     0.0000 </r>
        <r>   -27.6499     0.0000     0.0000     0.0000     0.0000     0.0000     0.0000     0.0000     0.0000     0.0000 </r>
        <r>   -27.5263     0.0000     0.0000     0.0000     0.0000     0.0000     0.0000     0.0000     0.0000     0.0000 </r>
        <r>   -27.4026     0.0000     0.0000     0.0000     0.0000     0.0000     0.0000     0.0000     0.0000     0.0000 </r>
        <r>   -27.2790     0.0000     0.0000     0.0000     0.0000     0.0000     0.0000     0.0000     0.0000     0.0000 </r>
        <r>   -27.1554     0.0000     0.0000     0.0000     0.0000     0.0000     0.0000     0.0000     0.0000     0.0000 </r>
        <r>   -27.0317     0.0000     0.0000     0.0000     0.0000     0.0000     0.0000     0.0000     0.0000     0.0000 </r>
        <r>   -26.9081     0.0000     0.0000     0.0000     0.0000     0.0000     0.0000     0.0000     0.0000     0.0000 </r>
        <r>   -26.7845     0.0000     0.0000     0.0000     0.0000     0.0000     0.0000     0.0000     0.0000     0.0000 </r>
        <r>   -26.6608     0.0000     0.0000     0.0000     0.0000     0.0000     0.0000     0.0000     0.0000     0.0000 </r>
        <r>   -26.5372     0.0000     0.0000     0.0000     0.0000     0.0000     0.0000     0.0000     0.0000     0.0000 </r>
        <r>   -26.4136     0.0000     0.0000     0.0000     0.0000     0.0000     0.0000     0.0000     0.0000     0.0000 </r>
        <r>   -26.2899     0.0000     0.0000     0.0000     0.0000     0.0000     0.0000     0.0000     0.0000     0.0000 </r>
        <r>   -26.1663     0.0000     0.0000     0.0000     0.0000     0.0000     0.0000     0.0000     0.0000     0.0000 </r>
        <r>   -26.0427     0.0000     0.0000     0.0000     0.0000     0.0000     0.0000     0.0000     0.0000     0.0000 </r>
        <r>   -25.9190     0.0000     0.0000     0.0000     0.0000     0.0000     0.0000     0.0000     0.0000     0.0000 </r>
        <r>   -25.7954     0.0000     0.0000     0.0000     0.0000     0.0000     0.0000     0.0000     0.0000     0.0000 </r>
        <r>   -25.6718     0.0000     0.0000     0.0000     0.0000     0.0000     0.0000     0.0000     0.0000     0.0000 </r>
        <r>   -25.5481     0.0000     0.0000     0.0000     0.0000     0.0000     0.0000     0.0000     0.0000     0.0000 </r>
        <r>   -25.4245     0.0000     0.0000     0.0000     0.0000     0.0000     0.0000     0.0000     0.0000     0.0000 </r>
        <r>   -25.3009     0.0000     0.0000     0.0000     0.0000     0.0000     0.0000     0.0000     0.0000     0.0000 </r>
        <r>   -25.1772     0.0000     0.0000     0.0000     0.0000     0.0000     0.0000     0.0000     0.0000     0.0000 </r>
        <r>   -25.0536     0.0000     0.0000     0.0000     0.0000     0.0000     0.0000     0.0000     0.0000     0.0000 </r>
        <r>   -24.9300     0.0000     0.0000     0.0000     0.0000     0.0000     0.0000     0.0000     0.0000     0.0000 </r>
        <r>   -24.8063     0.0000     0.0000     0.0000     0.0000     0.0000     0.0000     0.0000     0.0000     0.0000 </r>
        <r>   -24.6827     0.0000     0.0000     0.0000     0.0000     0.0000     0.0000     0.0000     0.0000     0.0000 </r>
        <r>   -24.5591     0.0000     0.0000     0.0000     0.0000     0.0000     0.0000     0.0000     0.0000     0.0000 </r>
        <r>   -24.4354     0.0000     0.0000     0.0000     0.0000     0.0000     0.0000     0.0000     0.0000     0.0000 </r>
        <r>   -24.3118     0.0000     0.0000     0.0000     0.0000     0.0000     0.0000     0.0000     0.0000     0.0000 </r>
        <r>   -24.1882     0.0000     0.0000     0.0000     0.0000     0.0000     0.0000     0.0000     0.0000     0.0000 </r>
        <r>   -24.0645     0.0000     0.0000     0.0000     0.0000     0.0000     0.0000     0.0000     0.0000     0.0000 </r>
        <r>   -23.9409     0.0000     0.0000     0.0000     0.0000     0.0000     0.0000     0.0000     0.0000     0.0000 </r>
        <r>   -23.8173     0.0000     0.0000     0.0000     0.0000     0.0000     0.0000     0.0000     0.0000     0.0000 </r>
        <r>   -23.6936     0.0000     0.0000     0.0000     0.0000     0.0000     0.0000     0.0000     0.0000     0.0000 </r>
        <r>   -23.5700     0.0000     0.0000     0.0000     0.0000     0.0000     0.0000     0.0000     0.0000     0.0000 </r>
        <r>   -23.4464     0.0000     0.0000     0.0000     0.0000     0.0000     0.0000     0.0000     0.0000     0.0000 </r>
        <r>   -23.3227     0.0000     0.0000     0.0000     0.0000     0.0000     0.0000     0.0000     0.0000     0.0000 </r>
        <r>   -23.1991     0.0000     0.0000     0.0000     0.0000     0.0000     0.0000     0.0000     0.0000     0.0000 </r>
        <r>   -23.0755     0.0000     0.0000     0.0000     0.0000     0.0000     0.0000     0.0000     0.0000     0.0000 </r>
        <r>   -22.9518     0.0000     0.0000     0.0000     0.0000     0.0000     0.0000     0.0000     0.0000     0.0000 </r>
        <r>   -22.8282     0.0000     0.0000     0.0000     0.0000     0.0000     0.0000     0.0000     0.0000     0.0000 </r>
        <r>   -22.7046     0.0000     0.0000     0.0000     0.0000     0.0000     0.0000     0.0000     0.0000     0.0000 </r>
        <r>   -22.5809     0.0000     0.0000     0.0000     0.0000     0.0000     0.0000     0.0000     0.0000     0.0000 </r>
        <r>   -22.4573     0.0000     0.0000     0.0000     0.0000     0.0000     0.0000     0.0000     0.0000     0.0000 </r>
        <r>   -22.3337     0.0000     0.0000     0.0000     0.0000     0.0000     0.0000     0.0000     0.0000     0.0000 </r>
        <r>   -22.2100     0.0000     0.0000     0.0000     0.0000     0.0000     0.0000     0.0000     0.0000     0.0000 </r>
        <r>   -22.0864     0.0000     0.0000     0.0000     0.0000     0.0000     0.0000     0.0000     0.0000     0.0000 </r>
        <r>   -21.9628     0.0000     0.0000     0.0000     0.0000     0.0000     0.0000     0.0000     0.0000     0.0000 </r>
        <r>   -21.8391     0.0000     0.0000     0.0000     0.0000     0.0000     0.0000     0.0000     0.0000     0.0000 </r>
        <r>   -21.7155     0.0000     0.0000     0.0000     0.0000     0.0000     0.0000     0.0000     0.0000     0.0000 </r>
        <r>   -21.5918     0.0000     0.0000     0.0000     0.0000     0.0000     0.0000     0.0000     0.0000     0.0000 </r>
        <r>   -21.4682     0.0000     0.0000     0.0000     0.0000     0.0000     0.0000     0.0000     0.0000     0.0000 </r>
        <r>   -21.3446     0.0000     0.0000     0.0000     0.0000     0.0000     0.0000     0.0000     0.0000     0.0000 </r>
        <r>   -21.2209     0.0000     0.0000     0.0000     0.0000     0.0000     0.0000     0.0000     0.0000     0.0000 </r>
        <r>   -21.0973     0.0000     0.0000     0.0000     0.0000     0.0000     0.0000     0.0000     0.0000     0.0000 </r>
        <r>   -20.9737     0.0000     0.0000     0.0000     0.0000     0.0000     0.0000     0.0000     0.0000     0.0000 </r>
        <r>   -20.8500     0.0000     0.0000     0.0000     0.0000     0.0000     0.0000     0.0000     0.0000     0.0000 </r>
        <r>   -20.7264     0.0000     0.0000     0.0000     0.0000     0.0000     0.0000     0.0000     0.0000     0.0000 </r>
        <r>   -20.6028     0.0000     0.0000     0.0000     0.0000     0.0000     0.0000     0.0000     0.0000     0.0000 </r>
        <r>   -20.4791     0.0000     0.0000     0.0000     0.0000     0.0000     0.0000     0.0000     0.0000     0.0000 </r>
        <r>   -20.3555     0.0000     0.0000     0.0000     0.0000     0.0000     0.0000     0.0000     0.0000     0.0000 </r>
        <r>   -20.2319     0.0000     0.0000     0.0000     0.0000     0.0000     0.0000     0.0000     0.0000     0.0000 </r>
        <r>   -20.1082     0.0000     0.0000     0.0000     0.0000     0.0000     0.0000     0.0000     0.0000     0.0000 </r>
        <r>   -19.9846     0.0000     0.0000     0.0000     0.0000     0.0000     0.0000     0.0000     0.0000     0.0000 </r>
        <r>   -19.8610     0.0000     0.0000     0.0000     0.0000     0.0000     0.0000     0.0000     0.0000     0.0000 </r>
        <r>   -19.7373     0.0000     0.0000     0.0000     0.0000     0.0000     0.0000     0.0000     0.0000     0.0000 </r>
        <r>   -19.6137     0.0000     0.0000     0.0000     0.0000     0.0000     0.0000     0.0000     0.0000     0.0000 </r>
        <r>   -19.4901     0.0000     0.0000     0.0000     0.0000     0.0000     0.0000     0.0000     0.0000     0.0000 </r>
        <r>   -19.3664     0.0000     0.0000     0.0000     0.0000     0.0000     0.0000     0.0000     0.0000     0.0000 </r>
        <r>   -19.2428     0.0000     0.0000     0.0000     0.0000     0.0000     0.0000     0.0000     0.0000     0.0000 </r>
        <r>   -19.1192     0.0000     0.0000     0.0000     0.0000     0.0000     0.0000     0.0000     0.0000     0.0000 </r>
        <r>   -18.9955     0.0000     0.0000     0.0000     0.0000     0.0000     0.0000     0.0000     0.0000     0.0000 </r>
        <r>   -18.8719     0.0000     0.0000     0.0000     0.0000     0.0000     0.0000     0.0000     0.0000     0.0000 </r>
        <r>   -18.7483     0.0000     0.0000     0.0000     0.0000     0.0000     0.0000     0.0000     0.0000     0.0000 </r>
        <r>   -18.6246     0.0000     0.0000     0.0000     0.0000     0.0000     0.0000     0.0000     0.0000     0.0000 </r>
        <r>   -18.5010     0.0000     0.0000     0.0000     0.0000     0.0000     0.0000     0.0000     0.0000     0.0000 </r>
        <r>   -18.3774     0.0000     0.0000     0.0000     0.0000     0.0000     0.0000     0.0000     0.0000     0.0000 </r>
        <r>   -18.2537     0.0000     0.0000     0.0000     0.0000     0.0000     0.0000     0.0000     0.0000     0.0000 </r>
        <r>   -18.1301     0.0000     0.0000     0.0000     0.0000     0.0000     0.0000     0.0000     0.0000     0.0000 </r>
        <r>   -18.0065     0.0000     0.0000     0.0000     0.0000     0.0000     0.0000     0.0000     0.0000     0.0000 </r>
        <r>   -17.8828     0.0000     0.0000     0.0000     0.0000     0.0000     0.0000     0.0000     0.0000     0.0000 </r>
        <r>   -17.7592     0.0000     0.0000     0.0000     0.0000     0.0000     0.0000     0.0000     0.0000     0.0000 </r>
        <r>   -17.6356     0.0000     0.0000     0.0000     0.0000     0.0000     0.0000     0.0000     0.0000     0.0000 </r>
        <r>   -17.5119     0.0000     0.0000     0.0000     0.0000     0.0000     0.0000     0.0000     0.0000     0.0000 </r>
        <r>   -17.3883     0.0000     0.0000     0.0000     0.0000     0.0000     0.0000     0.0000     0.0000     0.0000 </r>
        <r>   -17.2647     0.0000     0.0000     0.0000     0.0000     0.0000     0.0000     0.0000     0.0000     0.0000 </r>
        <r>   -17.1410     0.0000     0.0000     0.0000     0.0000     0.0000     0.0000     0.0000     0.0000     0.0000 </r>
        <r>   -17.0174     0.0000     0.0000     0.0000     0.0000     0.0000     0.0000     0.0000     0.0000     0.0000 </r>
        <r>   -16.8938     0.0000     0.0000     0.0000     0.0000     0.0000     0.0000     0.0000     0.0000     0.0000 </r>
        <r>   -16.7701     0.0000     0.0000     0.0000     0.0000     0.0000     0.0000     0.0000     0.0000     0.0000 </r>
        <r>   -16.6465     0.0000     0.0000     0.0000     0.0000     0.0000     0.0000     0.0000     0.0000     0.0000 </r>
        <r>   -16.5229     0.0000     0.0000     0.0000     0.0000     0.0000     0.0000     0.0000     0.0000     0.0000 </r>
        <r>   -16.3992     0.0000     0.0000     0.0000     0.0000     0.0000     0.0000     0.0000     0.0000     0.0000 </r>
        <r>   -16.2756     0.0000     0.0000     0.0000     0.0000     0.0000     0.0000     0.0000     0.0000     0.0000 </r>
        <r>   -16.1520     0.0000     0.0000     0.0000     0.0000     0.0000     0.0000     0.0000     0.0000     0.0000 </r>
        <r>   -16.0283     0.0000     0.0000     0.0000     0.0000     0.0000     0.0000     0.0000     0.0000     0.0000 </r>
        <r>   -15.9047     0.0000     0.0000     0.0000     0.0000     0.0000     0.0000     0.0000     0.0000     0.0000 </r>
        <r>   -15.7811     0.0000     0.0000     0.0000     0.0000     0.0000     0.0000     0.0000     0.0000     0.0000 </r>
        <r>   -15.6574     0.0000     0.0000     0.0000     0.0000     0.0000     0.0000     0.0000     0.0000     0.0000 </r>
        <r>   -15.5338     0.0000     0.0000     0.0000     0.0000     0.0000     0.0000     0.0000     0.0000     0.0000 </r>
        <r>   -15.4102     0.0000     0.0000     0.0000     0.0000     0.0000     0.0000     0.0000     0.0000     0.0000 </r>
        <r>   -15.2865     0.0000     0.0000     0.0000     0.0000     0.0000     0.0000     0.0000     0.0000     0.0000 </r>
        <r>   -15.1629     0.0000     0.0000     0.0000     0.0000     0.0000     0.0000     0.0000     0.0000     0.0000 </r>
        <r>   -15.0393     0.0000     0.0000     0.0000     0.0000     0.0000     0.0000     0.0000     0.0000     0.0000 </r>
        <r>   -14.9156     0.0000     0.0000     0.0000     0.0000     0.0000     0.0000     0.0000     0.0000     0.0000 </r>
        <r>   -14.7920     0.0000     0.0000     0.0000     0.0000     0.0000     0.0000     0.0000     0.0000     0.0000 </r>
        <r>   -14.6684     0.0000     0.0000     0.0000     0.0000     0.0000     0.0000     0.0000     0.0000     0.0000 </r>
        <r>   -14.5447     0.0000     0.0000     0.0000     0.0000     0.0000     0.0000     0.0000     0.0000     0.0000 </r>
        <r>   -14.4211     0.0000     0.0000     0.0000     0.0000     0.0000     0.0000     0.0000     0.0000     0.0000 </r>
        <r>   -14.2975     0.0002     0.0000     0.0006     0.0000     0.0000     0.0000     0.0000     0.0000     0.0000 </r>
        <r>   -14.1738     0.0049     0.0000     0.0130     0.0000     0.0000     0.0000     0.0000     0.0000     0.0000 </r>
        <r>   -14.0502     0.0533     0.0000     0.1423     0.0000     0.0000     0.0000     0.0000     0.0000     0.0000 </r>
        <r>   -13.9265     0.2819     0.0000     0.7521     0.0000     0.0000     0.0000     0.0000     0.0000     0.0000 </r>
        <r>   -13.8029     0.7245     0.0000     1.9330     0.0000     0.0000     0.0000     0.0000     0.0000     0.0000 </r>
        <r>   -13.6793     0.9083     0.0000     2.4233     0.0000     0.0000     0.0000     0.0000     0.0000     0.0000 </r>
        <r>   -13.5556     0.5559     0.0000     1.4831     0.0000     0.0000     0.0000     0.0000     0.0000     0.0000 </r>
        <r>   -13.4320     0.1658     0.0000     0.4423     0.0000     0.0000     0.0000     0.0000     0.0000     0.0000 </r>
        <r>   -13.3084     0.0240     0.0000     0.0640     0.0000     0.0000     0.0000     0.0000     0.0000     0.0000 </r>
        <r>   -13.1847     0.0017     0.0000     0.0045     0.0000     0.0000     0.0000     0.0000     0.0000     0.0000 </r>
        <r>   -13.0611     0.0001     0.0000     0.0002     0.0000     0.0000     0.0000     0.0000     0.0000     0.0000 </r>
        <r>   -12.9375     0.0000     0.0000     0.0000     0.0000     0.0000     0.0000     0.0000     0.0000     0.0000 </r>
        <r>   -12.8138     0.0000     0.0000     0.0000     0.0000     0.0000     0.0000     0.0000     0.0000     0.0000 </r>
        <r>   -12.6902     0.0000     0.0000     0.0000     0.0000     0.0000     0.0000     0.0000     0.0000     0.0000 </r>
        <r>   -12.5666     0.0000     0.0000     0.0000     0.0000     0.0000     0.0000     0.0000     0.0000     0.0000 </r>
        <r>   -12.4429     0.0000     0.0000     0.0000     0.0000     0.0000     0.0000     0.0000     0.0000     0.0000 </r>
        <r>   -12.3193     0.0000     0.0000     0.0000     0.0000     0.0000     0.0000     0.0000     0.0000     0.0000 </r>
        <r>   -12.1957     0.0000     0.0000     0.0000     0.0000     0.0000     0.0000     0.0000     0.0000     0.0000 </r>
        <r>   -12.0720     0.0000     0.0001     0.0000     0.0001     0.0000     0.0000     0.0000     0.0000     0.0000 </r>
        <r>   -11.9484     0.0000     0.0027     0.0000     0.0027     0.0000     0.0000     0.0000     0.0000     0.0000 </r>
        <r>   -11.8248     0.0000     0.0462     0.0000     0.0462     0.0000     0.0000     0.0000     0.0000     0.0000 </r>
        <r>   -11.7011     0.0000     0.3741     0.0000     0.3741     0.0000     0.0000     0.0000     0.0000     0.0000 </r>
        <r>   -11.5775     0.0000     1.4707     0.0000     1.4707     0.0000     0.0000     0.0000     0.0000     0.0000 </r>
        <r>   -11.4539     0.0000     2.8156     0.0000     2.8156     0.0000     0.0000     0.0000     0.0000     0.0000 </r>
        <r>   -11.3302     0.0000     2.6309     0.0000     2.6309     0.0000     0.0000     0.0000     0.0000     0.0000 </r>
        <r>   -11.2066     0.0000     1.1996     0.0000     1.1996     0.0000     0.0000     0.0000     0.0000     0.0000 </r>
        <r>   -11.0830     0.0000     0.2662     0.0000     0.2662     0.0000     0.0000     0.0000     0.0000     0.0000 </r>
        <r>   -10.9593     0.0000     0.0286     0.0000     0.0286     0.0000     0.0000     0.0000     0.0000     0.0000 </r>
        <r>   -10.8357     0.0000     0.0015     0.0000     0.0015     0.0000     0.0000     0.0000     0.0000     0.0000 </r>
        <r>   -10.7121     0.0000     0.0000     0.0000     0.0000     0.0000     0.0000     0.0000     0.0000     0.0000 </r>
        <r>   -10.5884     0.0000     0.0000     0.0000     0.0000     0.0000     0.0000     0.0000     0.0000     0.0000 </r>
        <r>   -10.4648     0.0000     0.0000     0.0000     0.0000     0.0000     0.0000     0.0000     0.0000     0.0000 </r>
        <r>   -10.3412     0.0000     0.0000     0.0000     0.0000     0.0000     0.0000     0.0000     0.0000     0.0000 </r>
        <r>   -10.2175     0.0000     0.0000     0.0000     0.0000     0.0000     0.0000     0.0000     0.0000     0.0000 </r>
        <r>   -10.0939     0.0000     0.0000     0.0000     0.0000     0.0000     0.0000     0.0000     0.0000     0.0000 </r>
        <r>    -9.9703     0.0000     0.0000     0.0000     0.0000     0.0000     0.0000     0.0000     0.0000     0.0000 </r>
        <r>    -9.8466     0.0000     0.0000     0.0000     0.0000     0.0000     0.0000     0.0000     0.0000     0.0000 </r>
        <r>    -9.7230     0.0000     0.0000     0.0000     0.0000     0.0000     0.0000     0.0000     0.0000     0.0000 </r>
        <r>    -9.5994     0.0000     0.0000     0.0000     0.0000     0.0000     0.0000     0.0000     0.0000     0.0000 </r>
        <r>    -9.4757     0.0000     0.0000     0.0000     0.0000     0.0000     0.0000     0.0000     0.0000     0.0000 </r>
        <r>    -9.3521     0.0000     0.0000     0.0000     0.0000     0.0000     0.0000     0.0000     0.0000     0.0000 </r>
        <r>    -9.2285     0.0000     0.0000     0.0011     0.0000     0.0000     0.0000     0.0000     0.0000     0.0000 </r>
        <r>    -9.1048     0.0001     0.0000     0.0167     0.0000     0.0000     0.0000     0.0000     0.0000     0.0000 </r>
        <r>    -8.9812     0.0009     0.0000     0.1206     0.0000     0.0000     0.0000     0.0000     0.0000     0.0000 </r>
        <r>    -8.8576     0.0032     0.0000     0.4233     0.0000     0.0000     0.0000     0.0000     0.0000     0.0000 </r>
        <r>    -8.7339     0.0054     0.0000     0.7238     0.0000     0.0000     0.0000     0.0000     0.0000     0.0000 </r>
        <r>    -8.6103     0.0045     0.0000     0.6041     0.0000     0.0000     0.0000     0.0000     0.0000     0.0000 </r>
        <r>    -8.4867     0.0018     0.0000     0.2460     0.0000     0.0000     0.0000     0.0000     0.0000     0.0000 </r>
        <r>    -8.3630     0.0004     0.0000     0.0487     0.0000     0.0000     0.0000     0.0000     0.0000     0.0000 </r>
        <r>    -8.2394     0.0000     0.0000     0.0047     0.0000     0.0000     0.0000     0.0000     0.0000     0.0000 </r>
        <r>    -8.1158     0.0000     0.0000     0.0002     0.0000     0.0000     0.0000     0.0000     0.0000     0.0000 </r>
        <r>    -7.9921     0.0000     0.0000     0.0000     0.0000     0.0000     0.0000     0.0000     0.0000     0.0000 </r>
        <r>    -7.8685     0.0000     0.0000     0.0000     0.0000     0.0000     0.0000     0.0000     0.0000     0.0000 </r>
        <r>    -7.7449     0.0000     0.0000     0.0000     0.0000     0.0000     0.0000     0.0000     0.0000     0.0000 </r>
        <r>    -7.6212     0.0000     0.0000     0.0000     0.0000     0.0000     0.0000     0.0000     0.0000     0.0000 </r>
        <r>    -7.4976     0.0000     0.0000     0.0000     0.0000     0.0000     0.0000     0.0000     0.0000     0.0000 </r>
        <r>    -7.3740     0.0000     0.0000     0.0000     0.0000     0.0000     0.0000     0.0000     0.0000     0.0000 </r>
        <r>    -7.2503     0.0000     0.0000     0.0000     0.0000     0.0000     0.0000     0.0000     0.0000     0.0000 </r>
        <r>    -7.1267     0.0000     0.0000     0.0000     0.0000     0.0000     0.0000     0.0000     0.0000     0.0000 </r>
        <r>    -7.0031     0.0000     0.0000     0.0000     0.0000     0.0000     0.0000     0.0000     0.0000     0.0000 </r>
        <r>    -6.8794     0.0000     0.0000     0.0000     0.0000     0.0000     0.0000     0.0000     0.0000     0.0000 </r>
        <r>    -6.7558     0.0000     0.0000     0.0000     0.0000     0.0000     0.0000     0.0000     0.0000     0.0000 </r>
        <r>    -6.6322     0.0000     0.0000     0.0000     0.0000     0.0000     0.0000     0.0000     0.0000     0.0000 </r>
        <r>    -6.5085     0.0000     0.0000     0.0000     0.0000     0.0000     0.0000     0.0000     0.0000     0.0000 </r>
        <r>    -6.3849     0.0000     0.0000     0.0000     0.0000     0.0000     0.0000     0.0000     0.0000     0.0000 </r>
        <r>    -6.2612     0.0000     0.0000     0.0000     0.0000     0.0000     0.0000     0.0000     0.0000     0.0000 </r>
        <r>    -6.1376     0.0000     0.0000     0.0000     0.0000     0.0000     0.0000     0.0000     0.0000     0.0000 </r>
        <r>    -6.0140     0.0000     0.0000     0.0000     0.0000     0.0000     0.0000     0.0000     0.0000     0.0000 </r>
        <r>    -5.8903     0.0000     0.0000     0.0000     0.0000     0.0000     0.0000     0.0000     0.0000     0.0000 </r>
        <r>    -5.7667     0.0000     0.0000     0.0000     0.0000     0.0000     0.0000     0.0000     0.0000     0.0000 </r>
        <r>    -5.6431     0.0000     0.0000     0.0000     0.0000     0.0000     0.0000     0.0000     0.0000     0.0000 </r>
        <r>    -5.5194     0.0000     0.0000     0.0000     0.0000     0.0000     0.0000     0.0000     0.0000     0.0000 </r>
        <r>    -5.3958     0.0000     0.0000     0.0000     0.0000     0.0000     0.0000     0.0000     0.0000     0.0000 </r>
        <r>    -5.2722     0.0000     0.0000     0.0000     0.0000     0.0000     0.0000     0.0000     0.0000     0.0000 </r>
        <r>    -5.1485     0.0000     0.0000     0.0000     0.0000     0.0000     0.0000     0.0000     0.0000     0.0000 </r>
        <r>    -5.0249     0.0000     0.0000     0.0000     0.0000     0.0000     0.0000     0.0000     0.0000     0.0000 </r>
        <r>    -4.9013     0.0000     0.0000     0.0000     0.0000     0.0000     0.0000     0.0000     0.0000     0.0000 </r>
        <r>    -4.7776     0.0000     0.0000     0.0000     0.0000     0.0000     0.0000     0.0000     0.0000     0.0000 </r>
        <r>    -4.6540     0.0000     0.0000     0.0000     0.0000     0.0000     0.0000     0.0000     0.0000     0.0000 </r>
        <r>    -4.5304     0.0000     0.0000     0.0000     0.0000     0.0000     0.0000     0.0000     0.0000     0.0000 </r>
        <r>    -4.4067     0.0000     0.0000     0.0000     0.0000     0.0000     0.0000     0.0000     0.0000     0.0000 </r>
        <r>    -4.2831     0.0000     0.0000     0.0000     0.0000     0.0000     0.0000     0.0000     0.0000     0.0000 </r>
        <r>    -4.1595     0.0000     0.0000     0.0000     0.0000     0.0000     0.0000     0.0000     0.0000     0.0000 </r>
        <r>    -4.0358     0.0000     0.0000     0.0000     0.0000     0.0000     0.0000     0.0000     0.0000     0.0000 </r>
        <r>    -3.9122     0.0000     0.0000     0.0000     0.0000     0.0000     0.0000     0.0000     0.0000     0.0000 </r>
        <r>    -3.7886     0.0000     0.0000     0.0000     0.0000     0.0000     0.0000     0.0000     0.0000     0.0000 </r>
        <r>    -3.6649     0.0000     0.0000     0.0000     0.0000     0.0000     0.0000     0.0000     0.0000     0.0000 </r>
        <r>    -3.5413     0.0000     0.0000     0.0000     0.0000     0.0000     0.0000     0.0000     0.0000     0.0000 </r>
        <r>    -3.4177     0.0000     0.0000     0.0000     0.0000     0.0000     0.0000     0.0000     0.0000     0.0000 </r>
        <r>    -3.2940     0.0000     0.0000     0.0000     0.0000     0.0000     0.0000     0.0000     0.0000     0.0000 </r>
        <r>    -3.1704     0.0000     0.0000     0.0000     0.0000     0.0000     0.0000     0.0000     0.0000     0.0000 </r>
        <r>    -3.0468     0.0000     0.0000     0.0000     0.0000     0.0000     0.0000     0.0000     0.0000     0.0000 </r>
        <r>    -2.9231     0.0000     0.0000     0.0000     0.0000     0.0000     0.0000     0.0000     0.0000     0.0000 </r>
        <r>    -2.7995     0.0000     0.0000     0.0000     0.0000     0.0000     0.0000     0.0000     0.0000     0.0000 </r>
        <r>    -2.6759     0.0000     0.0000     0.0000     0.0000     0.0000     0.0000     0.0000     0.0000     0.0000 </r>
        <r>    -2.5522     0.0000     0.0000     0.0000     0.0000     0.0000     0.0000     0.0000     0.0000     0.0000 </r>
        <r>    -2.4286     0.0000     0.0001     0.0000     0.0001     0.0000     0.0000     0.0000     0.0000     0.0000 </r>
        <r>    -2.3050     0.0000     0.0021     0.0000     0.0021     0.0000     0.0000     0.0000     0.0000     0.0000 </r>
        <r>    -2.1813     0.0000     0.0298     0.0000     0.0298     0.0000     0.0000     0.0000     0.0000     0.0000 </r>
        <r>    -2.0577     0.0000     0.2047     0.0000     0.2047     0.0000     0.0000     0.0000     0.0000     0.0000 </r>
        <r>    -1.9341     0.0000     0.6828     0.0000     0.6828     0.0000     0.0000     0.0000     0.0000     0.0000 </r>
        <r>    -1.8104     0.0000     1.1099     0.0000     1.1099     0.0000     0.0000     0.0000     0.0000     0.0000 </r>
        <r>    -1.6868     0.0000     0.8807     0.0000     0.8807     0.0000     0.0000     0.0000     0.0000     0.0000 </r>
        <r>    -1.5632     0.0000     0.3409     0.0000     0.3409     0.0000     0.0000     0.0000     0.0000     0.0000 </r>
        <r>    -1.4395     0.0000     0.0642     0.0000     0.0642     0.0000     0.0000     0.0000     0.0000     0.0000 </r>
        <r>    -1.3159     0.0000     0.0058     0.0000     0.0058     0.0000     0.0000     0.0000     0.0000     0.0000 </r>
        <r>    -1.1923     0.0000     0.0003     0.0000     0.0003     0.0000     0.0000     0.0000     0.0000     0.0000 </r>
        <r>    -1.0686     0.0000     0.0000     0.0000     0.0000     0.0000     0.0000     0.0000     0.0000     0.0000 </r>
        <r>    -0.9450     0.0000     0.0000     0.0000     0.0000     0.0000     0.0000     0.0000     0.0000     0.0000 </r>
        <r>    -0.8214     0.0000     0.0000     0.0000     0.0000     0.0000     0.0000     0.0000     0.0000     0.0000 </r>
        <r>    -0.6977     0.0000     0.0000     0.0000     0.0000     0.0000     0.0000     0.0000     0.0000     0.0000 </r>
        <r>    -0.5741     0.0006     0.0000     0.0006     0.0000     0.0000     0.0000     0.0000     0.0000     0.0000 </r>
        <r>    -0.4505     0.0038     0.0000     0.0038     0.0000     0.0000     0.0000     0.0000     0.0000     0.0000 </r>
        <r>    -0.3268     0.0125     0.0000     0.0124     0.0000     0.0000     0.0000     0.0000     0.0000     0.0000 </r>
        <r>    -0.2032     0.0201     0.0000     0.0199     0.0000     0.0000     0.0000     0.0000     0.0000     0.0000 </r>
        <r>    -0.0796     0.0158     0.0000     0.0156     0.0000     0.0000     0.0000     0.0000     0.0000     0.0000 </r>
        <r>     0.0441     0.0060     0.0000     0.0060     0.0000     0.0000     0.0000     0.0000     0.0000     0.0000 </r>
        <r>     0.1677     0.0011     0.0000     0.0011     0.0000     0.0000     0.0000     0.0000     0.0000     0.0000 </r>
        <r>     0.2913     0.0001     0.0000     0.0001     0.0000     0.0000     0.0000     0.0000     0.0000     0.0000 </r>
        <r>     0.4150     0.0000     0.0000     0.0000     0.0000     0.0000     0.0000     0.0000     0.0000     0.0000 </r>
        <r>     0.5386     0.0000     0.0000     0.0000     0.0000     0.0000     0.0000     0.0000     0.0000     0.0000 </r>
        <r>     0.6622     0.0000     0.0000     0.0000     0.0000     0.0000     0.0000     0.0000     0.0000     0.0000 </r>
        <r>     0.7859     0.0000     0.0000     0.0000     0.0000     0.0000     0.0000     0.0000     0.0000     0.0000 </r>
        <r>     0.9095     0.0000     0.0000     0.0000     0.0000     0.0000     0.0000     0.0000     0.0000     0.0000 </r>
        <r>     1.0331     0.0000     0.0000     0.0000     0.0000     0.0000     0.0000     0.0000     0.0000     0.0000 </r>
        <r>     1.1568     0.0000     0.0000     0.0000     0.0000     0.0000     0.0000     0.0000     0.0000     0.0000 </r>
        <r>     1.2804     0.0002     0.0000     0.0000     0.0000     0.0000     0.0000     0.0000     0.0000     0.0000 </r>
        <r>     1.4041     0.0020     0.0000     0.0001     0.0000     0.0000     0.0000     0.0000     0.0000     0.0000 </r>
        <r>     1.5277     0.0122     0.0001     0.0004     0.0001     0.0000     0.0000     0.0000     0.0000     0.0000 </r>
        <r>     1.6513     0.0364     0.0007     0.0019     0.0007     0.0000     0.0000     0.0000     0.0000     0.0000 </r>
        <r>     1.7750     0.0569     0.0028     0.0063     0.0028     0.0000     0.0000     0.0000     0.0000     0.0000 </r>
        <r>     1.8986     0.0536     0.0052     0.0140     0.0052     0.0000     0.0000     0.0000     0.0000     0.0000 </r>
        <r>     2.0222     0.0367     0.0047     0.0175     0.0047     0.0000     0.0000     0.0000     0.0000     0.0000 </r>
        <r>     2.1459     0.0185     0.0021     0.0115     0.0021     0.0000     0.0000     0.0000     0.0000     0.0000 </r>
        <r>     2.2695     0.0087     0.0004     0.0062     0.0004     0.0000     0.0000     0.0000     0.0000     0.0000 </r>
        <r>     2.3931     0.0124     0.0000     0.0095     0.0000     0.0000     0.0000     0.0000     0.0000     0.0000 </r>
        <r>     2.5168     0.0190     0.0000     0.0146     0.0000     0.0000     0.0000     0.0000     0.0000     0.0000 </r>
        <r>     2.6404     0.0150     0.0000     0.0115     0.0000     0.0000     0.0000     0.0000     0.0000     0.0000 </r>
        <r>     2.7640     0.0058     0.0000     0.0045     0.0000     0.0000     0.0000     0.0000     0.0000     0.0000 </r>
        <r>     2.8877     0.0011     0.0000     0.0008     0.0000     0.0000     0.0000     0.0000     0.0000     0.0000 </r>
        <r>     3.0113     0.0001     0.0000     0.0001     0.0000     0.0000     0.0000     0.0000     0.0000     0.0000 </r>
        <r>     3.1349     0.0000     0.0000     0.0000     0.0000     0.0000     0.0000     0.0000     0.0000     0.0000 </r>
        <r>     3.2586     0.0000     0.0000     0.0000     0.0000     0.0000     0.0000     0.0000     0.0000     0.0000 </r>
        <r>     3.3822     0.0000     0.0000     0.0000     0.0000     0.0000     0.0000     0.0000     0.0000     0.0000 </r>
        <r>     3.5058     0.0000     0.0000     0.0000     0.0000     0.0000     0.0000     0.0000     0.0000     0.0000 </r>
        <r>     3.6295     0.0001     0.0000     0.0000     0.0000     0.0000     0.0000     0.0000     0.0000     0.0000 </r>
        <r>     3.7531     0.0009     0.0000     0.0001     0.0000     0.0000     0.0000     0.0000     0.0000     0.0000 </r>
        <r>     3.8767     0.0069     0.0000     0.0011     0.0000     0.0000     0.0000     0.0000     0.0000     0.0000 </r>
        <r>     4.0004     0.0254     0.0000     0.0042     0.0000     0.0000     0.0000     0.0000     0.0000     0.0000 </r>
        <r>     4.1240     0.0458     0.0000     0.0076     0.0000     0.0000     0.0000     0.0000     0.0000     0.0000 </r>
        <r>     4.2476     0.0404     0.0000     0.0067     0.0000     0.0000     0.0000     0.0000     0.0000     0.0000 </r>
        <r>     4.3713     0.0174     0.0000     0.0029     0.0000     0.0000     0.0000     0.0000     0.0000     0.0000 </r>
        <r>     4.4949     0.0036     0.0000     0.0006     0.0000     0.0000     0.0000     0.0000     0.0000     0.0000 </r>
        <r>     4.6185     0.0004     0.0000     0.0001     0.0000     0.0000     0.0000     0.0000     0.0000     0.0000 </r>
        <r>     4.7422     0.0000     0.0000     0.0000     0.0000     0.0000     0.0000     0.0000     0.0000     0.0000 </r>
        <r>     4.8658     0.0000     0.0000     0.0000     0.0000     0.0000     0.0000     0.0000     0.0000     0.0000 </r>
        <r>     4.9894     0.0000     0.0000     0.0000     0.0000     0.0000     0.0000     0.0000     0.0000     0.0000 </r>
        <r>     5.1131     0.0000     0.0000     0.0000     0.0000     0.0000     0.0000     0.0000     0.0000     0.0000 </r>
        <r>     5.2367     0.0000     0.0000     0.0000     0.0000     0.0000     0.0000     0.0000     0.0000     0.0000 </r>
        <r>     5.3603     0.0000     0.0000     0.0000     0.0000     0.0000     0.0000     0.0000     0.0000     0.0000 </r>
        <r>     5.4840     0.0000     0.0000     0.0000     0.0000     0.0000     0.0000     0.0000     0.0000     0.0000 </r>
        <r>     5.6076     0.0000     0.0000     0.0000     0.0000     0.0000     0.0000     0.0000     0.0000     0.0000 </r>
        <r>     5.7312     0.0000     0.0000     0.0000     0.0000     0.0000     0.0000     0.0000     0.0000     0.0000 </r>
        <r>     5.8549     0.0000     0.0000     0.0000     0.0000     0.0000     0.0000     0.0000     0.0000     0.0000 </r>
        <r>     5.9785     0.0000     0.0000     0.0000     0.0000     0.0000     0.0000     0.0000     0.0000     0.0000 </r>
        <r>     6.1021     0.0000     0.0000     0.0000     0.0000     0.0000     0.0000     0.0000     0.0000     0.0000 </r>
       </set>
      </set>
      <set comment="ion 2">
       <set comment="spin 1">
        <r>   -30.9880     0.0000     0.0000     0.0000     0.0000     0.0000     0.0000     0.0000     0.0000     0.0000 </r>
        <r>   -30.8644     0.0000     0.0000     0.0000     0.0000     0.0000     0.0000     0.0000     0.0000     0.0000 </r>
        <r>   -30.7408     0.0000     0.0000     0.0000     0.0000     0.0000     0.0000     0.0000     0.0000     0.0000 </r>
        <r>   -30.6171     0.0000     0.0000     0.0000     0.0000     0.0000     0.0000     0.0000     0.0000     0.0000 </r>
        <r>   -30.4935     0.0000     0.0000     0.0000     0.0000     0.0000     0.0000     0.0000     0.0000     0.0000 </r>
        <r>   -30.3699     0.0000     0.0000     0.0000     0.0000     0.0000     0.0000     0.0000     0.0000     0.0000 </r>
        <r>   -30.2462     0.0000     0.0000     0.0000     0.0000     0.0000     0.0000     0.0000     0.0000     0.0000 </r>
        <r>   -30.1226     0.0000     0.0000     0.0000     0.0000     0.0000     0.0000     0.0000     0.0000     0.0000 </r>
        <r>   -29.9990     0.0000     0.0000     0.0000     0.0000     0.0000     0.0000     0.0000     0.0000     0.0000 </r>
        <r>   -29.8753     0.0000     0.0000     0.0000     0.0000     0.0000     0.0000     0.0000     0.0000     0.0000 </r>
        <r>   -29.7517     0.0000     0.0000     0.0000     0.0000     0.0000     0.0000     0.0000     0.0000     0.0000 </r>
        <r>   -29.6281     0.0000     0.0000     0.0000     0.0000     0.0000     0.0000     0.0000     0.0000     0.0000 </r>
        <r>   -29.5044     0.0003     0.0000     0.0003     0.0000     0.0000     0.0000     0.0000     0.0000     0.0000 </r>
        <r>   -29.3808     0.0068     0.0000     0.0053     0.0000     0.0000     0.0000     0.0000     0.0000     0.0000 </r>
        <r>   -29.2571     0.0675     0.0000     0.0527     0.0000     0.0000     0.0000     0.0000     0.0000     0.0000 </r>
        <r>   -29.1335     0.3228     0.0000     0.2519     0.0000     0.0000     0.0000     0.0000     0.0000     0.0000 </r>
        <r>   -29.0099     0.7509     0.0000     0.5861     0.0000     0.0000     0.0000     0.0000     0.0000     0.0000 </r>
        <r>   -28.8862     0.8524     0.0000     0.6653     0.0000     0.0000     0.0000     0.0000     0.0000     0.0000 </r>
        <r>   -28.7626     0.4723     0.0000     0.3686     0.0000     0.0000     0.0000     0.0000     0.0000     0.0000 </r>
        <r>   -28.6390     0.1275     0.0000     0.0995     0.0000     0.0000     0.0000     0.0000     0.0000     0.0000 </r>
        <r>   -28.5153     0.0167     0.0000     0.0130     0.0000     0.0000     0.0000     0.0000     0.0000     0.0000 </r>
        <r>   -28.3917     0.0011     0.0000     0.0008     0.0000     0.0000     0.0000     0.0000     0.0000     0.0000 </r>
        <r>   -28.2681     0.0000     0.0000     0.0000     0.0000     0.0000     0.0000     0.0000     0.0000     0.0000 </r>
        <r>   -28.1444     0.0000     0.0000     0.0000     0.0000     0.0000     0.0000     0.0000     0.0000     0.0000 </r>
        <r>   -28.0208     0.0000     0.0000     0.0000     0.0000     0.0000     0.0000     0.0000     0.0000     0.0000 </r>
        <r>   -27.8972     0.0000     0.0000     0.0000     0.0000     0.0000     0.0000     0.0000     0.0000     0.0000 </r>
        <r>   -27.7735     0.0000     0.0000     0.0000     0.0000     0.0000     0.0000     0.0000     0.0000     0.0000 </r>
        <r>   -27.6499     0.0000     0.0000     0.0000     0.0000     0.0000     0.0000     0.0000     0.0000     0.0000 </r>
        <r>   -27.5263     0.0000     0.0000     0.0000     0.0000     0.0000     0.0000     0.0000     0.0000     0.0000 </r>
        <r>   -27.4026     0.0000     0.0000     0.0000     0.0000     0.0000     0.0000     0.0000     0.0000     0.0000 </r>
        <r>   -27.2790     0.0000     0.0000     0.0000     0.0000     0.0000     0.0000     0.0000     0.0000     0.0000 </r>
[...]
        <r>    -7.2503     0.0000     0.0000     0.0000     0.0000     0.0000     0.0000     0.0000     0.0000     0.0000 </r>
        <r>    -7.1267     0.0000     0.0000     0.0000     0.0000     0.0000     0.0000     0.0000     0.0000     0.0000 </r>
        <r>    -7.0031     0.0000     0.0000     0.0000     0.0000     0.0000     0.0000     0.0000     0.0000     0.0000 </r>
        <r>    -6.8794     0.0000     0.0000     0.0000     0.0000     0.0000     0.0000     0.0000     0.0000     0.0000 </r>
        <r>    -6.7558     0.0000     0.0000     0.0000     0.0000     0.0000     0.0000     0.0000     0.0000     0.0000 </r>
        <r>    -6.6322     0.0000     0.0000     0.0000     0.0000     0.0000     0.0000     0.0000     0.0000     0.0000 </r>
        <r>    -6.5085     0.0000     0.0000     0.0000     0.0000     0.0000     0.0000     0.0000     0.0000     0.0000 </r>
        <r>    -6.3849     0.0000     0.0000     0.0000     0.0000     0.0000     0.0000     0.0000     0.0000     0.0000 </r>
        <r>    -6.2612     0.0000     0.0000     0.0000     0.0000     0.0000     0.0000     0.0000     0.0000     0.0000 </r>
        <r>    -6.1376     0.0000     0.0000     0.0000     0.0000     0.0000     0.0000     0.0000     0.0000     0.0000 </r>
        <r>    -6.0140     0.0000     0.0000     0.0000     0.0000     0.0000     0.0000     0.0000     0.0000     0.0000 </r>
        <r>    -5.8903     0.0000     0.0000     0.0000     0.0000     0.0000     0.0000     0.0000     0.0000     0.0000 </r>
        <r>    -5.7667     0.0000     0.0000     0.0000     0.0000     0.0000     0.0000     0.0000     0.0000     0.0000 </r>
        <r>    -5.6431     0.0000     0.0000     0.0000     0.0000     0.0000     0.0000     0.0000     0.0000     0.0000 </r>
        <r>    -5.5194     0.0000     0.0000     0.0000     0.0000     0.0000     0.0000     0.0000     0.0000     0.0000 </r>
        <r>    -5.3958     0.0000     0.0000     0.0000     0.0000     0.0000     0.0000     0.0000     0.0000     0.0000 </r>
        <r>    -5.2722     0.0000     0.0000     0.0000     0.0000     0.0000     0.0000     0.0000     0.0000     0.0000 </r>
        <r>    -5.1485     0.0000     0.0000     0.0000     0.0000     0.0000     0.0000     0.0000     0.0000     0.0000 </r>
        <r>    -5.0249     0.0000     0.0000     0.0000     0.0000     0.0000     0.0000     0.0000     0.0000     0.0000 </r>
        <r>    -4.9013     0.0000     0.0000     0.0000     0.0000     0.0000     0.0000     0.0000     0.0000     0.0000 </r>
        <r>    -4.7776     0.0000     0.0000     0.0000     0.0000     0.0000     0.0000     0.0000     0.0000     0.0000 </r>
        <r>    -4.6540     0.0000     0.0000     0.0000     0.0000     0.0000     0.0000     0.0000     0.0000     0.0000 </r>
        <r>    -4.5304     0.0000     0.0000     0.0000     0.0000     0.0000     0.0000     0.0000     0.0000     0.0000 </r>
        <r>    -4.4067     0.0000     0.0000     0.0000     0.0000     0.0000     0.0000     0.0000     0.0000     0.0000 </r>
        <r>    -4.2831     0.0000     0.0000     0.0000     0.0000     0.0000     0.0000     0.0000     0.0000     0.0000 </r>
        <r>    -4.1595     0.0000     0.0000     0.0000     0.0000     0.0000     0.0000     0.0000     0.0000     0.0000 </r>
        <r>    -4.0358     0.0000     0.0000     0.0000     0.0000     0.0000     0.0000     0.0000     0.0000     0.0000 </r>
        <r>    -3.9122     0.0000     0.0000     0.0000     0.0000     0.0000     0.0000     0.0000     0.0000     0.0000 </r>
        <r>    -3.7886     0.0000     0.0000     0.0000     0.0000     0.0000     0.0000     0.0000     0.0000     0.0000 </r>
        <r>    -3.6649     0.0000     0.0000     0.0000     0.0000     0.0000     0.0000     0.0000     0.0000     0.0000 </r>
        <r>    -3.5413     0.0000     0.0000     0.0000     0.0000     0.0000     0.0000     0.0000     0.0000     0.0000 </r>
        <r>    -3.4177     0.0000     0.0000     0.0000     0.0000     0.0000     0.0000     0.0000     0.0000     0.0000 </r>
        <r>    -3.2940     0.0000     0.0000     0.0000     0.0000     0.0000     0.0000     0.0000     0.0000     0.0000 </r>
        <r>    -3.1704     0.0000     0.0000     0.0000     0.0000     0.0000     0.0000     0.0000     0.0000     0.0000 </r>
        <r>    -3.0468     0.0000     0.0000     0.0000     0.0000     0.0000     0.0000     0.0000     0.0000     0.0000 </r>
        <r>    -2.9231     0.0000     0.0000     0.0000     0.0000     0.0000     0.0000     0.0000     0.0000     0.0000 </r>
        <r>    -2.7995     0.0000     0.0000     0.0000     0.0000     0.0000     0.0000     0.0000     0.0000     0.0000 </r>
        <r>    -2.6759     0.0000     0.0000     0.0000     0.0000     0.0000     0.0000     0.0000     0.0000     0.0000 </r>
        <r>    -2.5522     0.0000     0.0000     0.0000     0.0000     0.0000     0.0000     0.0000     0.0000     0.0000 </r>
        <r>    -2.4286     0.0000     0.0001     0.0000     0.0001     0.0000     0.0000     0.0000     0.0000     0.0000 </r>
        <r>    -2.3050     0.0000     0.0032     0.0000     0.0032     0.0000     0.0000     0.0000     0.0000     0.0000 </r>
        <r>    -2.1813     0.0000     0.0454     0.0000     0.0454     0.0000     0.0000     0.0000     0.0000     0.0000 </r>
        <r>    -2.0577     0.0000     0.3122     0.0000     0.3122     0.0000     0.0000     0.0000     0.0000     0.0000 </r>
        <r>    -1.9341     0.0000     1.0412     0.0000     1.0412     0.0000     0.0000     0.0000     0.0000     0.0000 </r>
        <r>    -1.8104     0.0000     1.6924     0.0000     1.6924     0.0000     0.0000     0.0000     0.0000     0.0000 </r>
        <r>    -1.6868     0.0000     1.3429     0.0000     1.3429     0.0000     0.0000     0.0000     0.0000     0.0000 </r>
        <r>    -1.5632     0.0000     0.5198     0.0000     0.5198     0.0000     0.0000     0.0000     0.0000     0.0000 </r>
        <r>    -1.4395     0.0000     0.0978     0.0000     0.0978     0.0000     0.0000     0.0000     0.0000     0.0000 </r>
        <r>    -1.3159     0.0000     0.0089     0.0000     0.0089     0.0000     0.0000     0.0000     0.0000     0.0000 </r>
        <r>    -1.1923     0.0000     0.0004     0.0000     0.0004     0.0000     0.0000     0.0000     0.0000     0.0000 </r>
        <r>    -1.0686     0.0000     0.0000     0.0000     0.0000     0.0000     0.0000     0.0000     0.0000     0.0000 </r>
        <r>    -0.9450     0.0000     0.0000     0.0000     0.0000     0.0000     0.0000     0.0000     0.0000     0.0000 </r>
        <r>    -0.8214     0.0000     0.0000     0.0000     0.0000     0.0000     0.0000     0.0000     0.0000     0.0000 </r>
        <r>    -0.6977     0.0001     0.0000     0.0001     0.0000     0.0000     0.0000     0.0000     0.0000     0.0000 </r>
        <r>    -0.5741     0.0012     0.0000     0.0012     0.0000     0.0000     0.0000     0.0000     0.0000     0.0000 </r>
        <r>    -0.4505     0.0085     0.0000     0.0081     0.0000     0.0000     0.0000     0.0000     0.0000     0.0000 </r>
        <r>    -0.3268     0.0279     0.0000     0.0267     0.0000     0.0000     0.0000     0.0000     0.0000     0.0000 </r>
        <r>    -0.2032     0.0449     0.0000     0.0429     0.0000     0.0000     0.0000     0.0000     0.0000     0.0000 </r>
        <r>    -0.0796     0.0352     0.0000     0.0337     0.0000     0.0000     0.0000     0.0000     0.0000     0.0000 </r>
        <r>     0.0441     0.0135     0.0000     0.0129     0.0000     0.0000     0.0000     0.0000     0.0000     0.0000 </r>
        <r>     0.1677     0.0025     0.0000     0.0024     0.0000     0.0000     0.0000     0.0000     0.0000     0.0000 </r>
        <r>     0.2913     0.0002     0.0000     0.0002     0.0000     0.0000     0.0000     0.0000     0.0000     0.0000 </r>
        <r>     0.4150     0.0000     0.0000     0.0000     0.0000     0.0000     0.0000     0.0000     0.0000     0.0000 </r>
        <r>     0.5386     0.0000     0.0000     0.0000     0.0000     0.0000     0.0000     0.0000     0.0000     0.0000 </r>
        <r>     0.6622     0.0000     0.0000     0.0000     0.0000     0.0000     0.0000     0.0000     0.0000     0.0000 </r>
        <r>     0.7859     0.0000     0.0000     0.0000     0.0000     0.0000     0.0000     0.0000     0.0000     0.0000 </r>
        <r>     0.9095     0.0000     0.0000     0.0000     0.0000     0.0000     0.0000     0.0000     0.0000     0.0000 </r>
        <r>     1.0331     0.0000     0.0000     0.0000     0.0000     0.0000     0.0000     0.0000     0.0000     0.0000 </r>
        <r>     1.1568     0.0000     0.0000     0.0000     0.0000     0.0000     0.0000     0.0000     0.0000     0.0000 </r>
        <r>     1.2804     0.0000     0.0000     0.0000     0.0000     0.0000     0.0000     0.0000     0.0000     0.0000 </r>
        <r>     1.4041     0.0002     0.0002     0.0000     0.0002     0.0000     0.0000     0.0000     0.0000     0.0000 </r>
        <r>     1.5277     0.0014     0.0032     0.0001     0.0032     0.0000     0.0000     0.0000     0.0000     0.0000 </r>
        <r>     1.6513     0.0050     0.0247     0.0002     0.0247     0.0000     0.0000     0.0000     0.0000     0.0000 </r>
        <r>     1.7750     0.0119     0.0934     0.0003     0.0934     0.0000     0.0000     0.0000     0.0000     0.0000 </r>
        <r>     1.8986     0.0211     0.1723     0.0002     0.1723     0.0000     0.0000     0.0000     0.0000     0.0000 </r>
        <r>     2.0222     0.0242     0.1551     0.0002     0.1551     0.0000     0.0000     0.0000     0.0000     0.0000 </r>
        <r>     2.1459     0.0169     0.0681     0.0015     0.0681     0.0000     0.0000     0.0000     0.0000     0.0000 </r>
        <r>     2.2695     0.0182     0.0146     0.0100     0.0146     0.0000     0.0000     0.0000     0.0000     0.0000 </r>
        <r>     2.3931     0.0458     0.0015     0.0332     0.0015     0.0000     0.0000     0.0000     0.0000     0.0000 </r>
        <r>     2.5168     0.0733     0.0001     0.0539     0.0001     0.0000     0.0000     0.0000     0.0000     0.0000 </r>
        <r>     2.6404     0.0581     0.0000     0.0427     0.0000     0.0000     0.0000     0.0000     0.0000     0.0000 </r>
        <r>     2.7640     0.0225     0.0000     0.0165     0.0000     0.0000     0.0000     0.0000     0.0000     0.0000 </r>
        <r>     2.8877     0.0042     0.0000     0.0031     0.0000     0.0000     0.0000     0.0000     0.0000     0.0000 </r>
        <r>     3.0113     0.0004     0.0000     0.0003     0.0000     0.0000     0.0000     0.0000     0.0000     0.0000 </r>
        <r>     3.1349     0.0000     0.0000     0.0000     0.0000     0.0000     0.0000     0.0000     0.0000     0.0000 </r>
        <r>     3.2586     0.0000     0.0000     0.0000     0.0000     0.0000     0.0000     0.0000     0.0000     0.0000 </r>
        <r>     3.3822     0.0000     0.0000     0.0000     0.0000     0.0000     0.0000     0.0000     0.0000     0.0000 </r>
        <r>     3.5058     0.0000     0.0000     0.0000     0.0000     0.0000     0.0000     0.0000     0.0000     0.0000 </r>
        <r>     3.6295     0.0000     0.0000     0.0000     0.0000     0.0000     0.0000     0.0000     0.0000     0.0000 </r>
        <r>     3.7531     0.0002     0.0000     0.0000     0.0000     0.0000     0.0000     0.0000     0.0000     0.0000 </r>
        <r>     3.8767     0.0015     0.0000     0.0000     0.0000     0.0000     0.0000     0.0000     0.0000     0.0000 </r>
        <r>     4.0004     0.0057     0.0000     0.0000     0.0000     0.0000     0.0000     0.0000     0.0000     0.0000 </r>
        <r>     4.1240     0.0102     0.0000     0.0000     0.0000     0.0000     0.0000     0.0000     0.0000     0.0000 </r>
        <r>     4.2476     0.0090     0.0000     0.0000     0.0000     0.0000     0.0000     0.0000     0.0000     0.0000 </r>
        <r>     4.3713     0.0039     0.0000     0.0000     0.0000     0.0000     0.0000     0.0000     0.0000     0.0000 </r>
        <r>     4.4949     0.0008     0.0000     0.0000     0.0000     0.0000     0.0000     0.0000     0.0000     0.0000 </r>
        <r>     4.6185     0.0001     0.0000     0.0000     0.0000     0.0000     0.0000     0.0000     0.0000     0.0000 </r>
        <r>     4.7422     0.0000     0.0000     0.0000     0.0000     0.0000     0.0000     0.0000     0.0000     0.0000 </r>
        <r>     4.8658     0.0000     0.0000     0.0000     0.0000     0.0000     0.0000     0.0000     0.0000     0.0000 </r>
        <r>     4.9894     0.0000     0.0000     0.0000     0.0000     0.0000     0.0000     0.0000     0.0000     0.0000 </r>
        <r>     5.1131     0.0000     0.0000     0.0000     0.0000     0.0000     0.0000     0.0000     0.0000     0.0000 </r>
        <r>     5.2367     0.0000     0.0000     0.0000     0.0000     0.0000     0.0000     0.0000     0.0000     0.0000 </r>
        <r>     5.3603     0.0000     0.0000     0.0000     0.0000     0.0000     0.0000     0.0000     0.0000     0.0000 </r>
        <r>     5.4840     0.0000     0.0000     0.0000     0.0000     0.0000     0.0000     0.0000     0.0000     0.0000 </r>
        <r>     5.6076     0.0000     0.0000     0.0000     0.0000     0.0000     0.0000     0.0000     0.0000     0.0000 </r>
        <r>     5.7312     0.0000     0.0000     0.0000     0.0000     0.0000     0.0000     0.0000     0.0000     0.0000 </r>
        <r>     5.8549     0.0000     0.0000     0.0000     0.0000     0.0000     0.0000     0.0000     0.0000     0.0000 </r>
        <r>     5.9785     0.0000     0.0000     0.0000     0.0000     0.0000     0.0000     0.0000     0.0000     0.0000 </r>
        <r>     6.1021     0.0000     0.0000     0.0000     0.0000     0.0000     0.0000     0.0000     0.0000     0.0000 </r>
       </set>
      </set>
     </set>
    </array>
   </partial>
  </dos>
  <projected>
   <eigenvalues>
    <array>
     <dimension dim="1">band</dimension>
     <dimension dim="2">kpoint</dimension>
     <dimension dim="3">spin</dimension>
     <field>eigene</field>
     <field>occ</field>
     <set>
      <set comment="spin 1">
       <set comment="kpoint 1">
        <r>  -28.9880    1.0000 </r>
        <r>  -13.7639    1.0000 </r>
        <r>  -11.4656    1.0000 </r>
        <r>  -11.4656    1.0000 </r>
        <r>   -8.7651    1.0000 </r>
        <r>   -1.8503    0.0000 </r>
        <r>   -1.8503    0.0000 </r>
        <r>   -0.2449    0.0000 </r>
        <r>    1.7117    0.0000 </r>
        <r>    1.8805    0.0000 </r>
        <r>    1.8805    0.0000 </r>
        <r>    1.9432    0.0000 </r>
        <r>    1.9465    0.0000 </r>
        <r>    2.4768    0.0000 </r>
        <r>    3.6939    0.0000 </r>
        <r>    4.1021    0.0000 </r>
       </set>
      </set>
     </set>
    </array>
   </eigenvalues>
   <array>
    <dimension dim="1">ion</dimension>
    <dimension dim="2">band</dimension>
    <dimension dim="3">kpoint</dimension>
    <dimension dim="4">spin</dimension>
    <field>  s</field>
    <field> py</field>
    <field> pz</field>
    <field> px</field>
    <field>dxy</field>
    <field>dyz</field>
    <field>dz2</field>
    <field>dxz</field>
    <field>dx2</field>
    <set>
     <set comment="spin1">
      <set comment="kpoint 1">
       <set comment="band 1">
        <r>  0.6580  0.0000  0.0985  0.0000  0.0000  0.0000  0.0000  0.0000  0.0000 </r>
        <r>  0.1619  0.0000  0.1263  0.0000  0.0000  0.0000  0.0000  0.0000  0.0000 </r>
       </set>
       <set comment="band 2">
        <r>  0.1682  0.0000  0.4487  0.0000  0.0000  0.0000  0.0000  0.0000  0.0000 </r>
        <r>  0.1873  0.0000  0.0179  0.0000  0.0000  0.0000  0.0000  0.0000  0.0000 </r>
       </set>
       <set comment="band 3">
        <r>  0.0000  0.3225  0.0000  0.2238  0.0000  0.0000  0.0000  0.0000  0.0000 </r>
        <r>  0.0000  0.0925  0.0000  0.0642  0.0000  0.0000  0.0000  0.0000  0.0000 </r>
       </set>
       <set comment="band 4">
        <r>  0.0000  0.2238  0.0000  0.3225  0.0000  0.0000  0.0000  0.0000  0.0000 </r>
        <r>  0.0000  0.0642  0.0000  0.0925  0.0000  0.0000  0.0000  0.0000  0.0000 </r>
       </set>
       <set comment="band 5">
        <r>  0.0010  0.0000  0.1353  0.0000  0.0000  0.0000  0.0000  0.0000  0.0000 </r>
        <r>  0.1718  0.0000  0.2608  0.0000  0.0000  0.0000  0.0000  0.0000  0.0000 </r>
       </set>
       <set comment="band 6">
        <r>  0.0000  0.0445  0.0000  0.1608  0.0000  0.0000  0.0000  0.0000  0.0000 </r>
        <r>  0.0000  0.0678  0.0000  0.2452  0.0000  0.0000  0.0000  0.0000  0.0000 </r>
       </set>
       <set comment="band 7">
        <r>  0.0000  0.1608  0.0000  0.0445  0.0000  0.0000  0.0000  0.0000  0.0000 </r>
        <r>  0.0000  0.2452  0.0000  0.0678  0.0000  0.0000  0.0000  0.0000  0.0000 </r>
       </set>
       <set comment="band 8">
        <r>  0.0037  0.0000  0.0037  0.0000  0.0000  0.0000  0.0000  0.0000  0.0000 </r>
        <r>  0.0083  0.0000  0.0079  0.0000  0.0000  0.0000  0.0000  0.0000  0.0000 </r>
       </set>
       <set comment="band 9">
        <r>  0.0091  0.0000  0.0003  0.0000  0.0000  0.0000  0.0000  0.0000  0.0000 </r>
        <r>  0.0010  0.0000  0.0001  0.0000  0.0000  0.0000  0.0000  0.0000  0.0000 </r>
       </set>
       <set comment="band 10">
        <r>  0.0000  0.0004  0.0000  0.0006  0.0000  0.0000  0.0000  0.0000  0.0000 </r>
        <r>  0.0000  0.0131  0.0000  0.0199  0.0000  0.0000  0.0000  0.0000  0.0000 </r>
       </set>
       <set comment="band 11">
        <r>  0.0000  0.0006  0.0000  0.0004  0.0000  0.0000  0.0000  0.0000  0.0000 </r>
        <r>  0.0000  0.0199  0.0000  0.0131  0.0000  0.0000  0.0000  0.0000  0.0000 </r>
       </set>
       <set comment="band 12">
        <r>  0.0000  0.0000  0.0000  0.0000  0.0000  0.0000  0.0000  0.0000  0.0000 </r>
        <r>  0.0000  0.0000  0.0000  0.0000  0.0000  0.0000  0.0000  0.0000  0.0000 </r>
       </set>
       <set comment="band 13">
        <r>  0.0046  0.0000  0.0031  0.0000  0.0000  0.0000  0.0000  0.0000  0.0000 </r>
        <r>  0.0042  0.0000  0.0000  0.0000  0.0000  0.0000  0.0000  0.0000  0.0000 </r>
       </set>
       <set comment="band 14">
        <r>  0.0035  0.0000  0.0027  0.0000  0.0000  0.0000  0.0000  0.0000  0.0000 </r>
        <r>  0.0136  0.0000  0.0100  0.0000  0.0000  0.0000  0.0000  0.0000  0.0000 </r>
       </set>
       <set comment="band 15">
        <r>  0.0000  0.0000  0.0000  0.0000  0.0000  0.0000  0.0000  0.0000  0.0000 </r>
        <r>  0.0000  0.0000  0.0000  0.0000  0.0000  0.0000  0.0000  0.0000  0.0000 </r>
       </set>
       <set comment="band 16">
        <r>  0.0087  0.0000  0.0015  0.0000  0.0000  0.0000  0.0000  0.0000  0.0000 </r>
        <r>  0.0019  0.0000  0.0000  0.0000  0.0000  0.0000  0.0000  0.0000  0.0000 </r>
       </set>
      </set>
     </set>
    </set>
   </array>
  </projected>
 </calculation>
 <structure name="finalpos" >
  <crystal>
   <varray name="basis" >
    <v>       8.00000000       0.00000000       0.00000000 </v>
    <v>       0.00000000       8.00000000       0.00000000 </v>
    <v>       0.00000000       0.00000000       8.00000000 </v>
   </varray>
   <i name="volume">    512.00000000 </i>
   <varray name="rec_basis" >
    <v>       0.12500000       0.00000000       0.00000000 </v>
    <v>       0.00000000       0.12500000       0.00000000 </v>
    <v>       0.00000000       0.00000000       0.12500000 </v>
   </varray>
  </crystal>
  <varray name="positions" >
   <v>       0.00000000       0.00000000       0.00000000 </v>
   <v>       0.00000000       0.00000000       0.14287500 </v>
  </varray>
  <varray name="selective"  type="logical" >
   <v type="logical" >  F  F  T </v>
   <v type="logical" >  F  F  T </v>
  </varray>
  <nose>
   <v>      -3.00000000       0.00000000       0.00010000       0.00010000 </v>
  </nose>
 </structure>
</modeling>
