   2   2   0   0
  0.2560000E+03  0.8000000E-09  0.8000000E-09  0.8000000E-09  0.2000000E-16
  1.000000000000000E-004
  CAR 
 CO dimer in a box                       
      6.13507021    -31.28517981  301     -7.70944781      1.00000000
    -31.285  0.0000E+00  0.0000E+00
    -31.160  0.0000E+00  0.0000E+00
    -31.036  0.0000E+00  0.0000E+00
    -30.911  0.0000E+00  0.0000E+00
    -30.786  0.0000E+00  0.0000E+00
    -30.662  0.0000E+00  0.0000E+00
    -30.537  0.0000E+00  0.0000E+00
    -30.412  0.1335E-13  0.1665E-14
    -30.287  0.1104E-10  0.1379E-11
    -30.163  0.4399E-08  0.5501E-09
    -30.038  0.8180E-06  0.1026E-06
    -29.913  0.7127E-04  0.8992E-05
    -29.788  0.2923E-02  0.3736E-03
    -29.664  0.5672E-01  0.7449E-02
    -29.539  0.5239E+00  0.7280E-01
    -29.414  0.2316E+01  0.3617E+00
    -29.289  0.4925E+01  0.9760E+00
    -29.165  0.5049E+01  0.1606E+01
    -29.040  0.2496E+01  0.1917E+01
    -28.915  0.5935E+00  0.1991E+01
    -28.790  0.6758E-01  0.2000E+01
    -28.666  0.3664E-02  0.2000E+01
    -28.541  0.9403E-04  0.2000E+01
    -28.416  0.1136E-05  0.2000E+01
    -28.292  0.6436E-08  0.2000E+01
    -28.167  0.1702E-10  0.2000E+01
    -28.042  0.2136E-13  0.2000E+01
    -27.917  0.0000E+00  0.2000E+01
    -27.793  0.0000E+00  0.2000E+01
    -27.668  0.0000E+00  0.2000E+01
    -27.543  0.0000E+00  0.2000E+01
    -27.418  0.0000E+00  0.2000E+01
    -27.294  0.0000E+00  0.2000E+01
    -27.169  0.0000E+00  0.2000E+01
    -27.044  0.0000E+00  0.2000E+01
    -26.919  0.0000E+00  0.2000E+01
    -26.795  0.0000E+00  0.2000E+01
    -26.670  0.0000E+00  0.2000E+01
    -26.545  0.0000E+00  0.2000E+01
    -26.421  0.0000E+00  0.2000E+01
    -26.296  0.0000E+00  0.2000E+01
    -26.171  0.0000E+00  0.2000E+01
    -26.046  0.0000E+00  0.2000E+01
    -25.922  0.0000E+00  0.2000E+01
    -25.797  0.0000E+00  0.2000E+01
    -25.672  0.0000E+00  0.2000E+01
    -25.547  0.0000E+00  0.2000E+01
    -25.423  0.0000E+00  0.2000E+01
    -25.298  0.0000E+00  0.2000E+01
    -25.173  0.0000E+00  0.2000E+01
    -25.048  0.0000E+00  0.2000E+01
    -24.924  0.0000E+00  0.2000E+01
    -24.799  0.0000E+00  0.2000E+01
    -24.674  0.0000E+00  0.2000E+01
    -24.550  0.0000E+00  0.2000E+01
    -24.425  0.0000E+00  0.2000E+01
    -24.300  0.0000E+00  0.2000E+01
    -24.175  0.0000E+00  0.2000E+01
    -24.051  0.0000E+00  0.2000E+01
    -23.926  0.0000E+00  0.2000E+01
    -23.801  0.0000E+00  0.2000E+01
    -23.676  0.0000E+00  0.2000E+01
    -23.552  0.0000E+00  0.2000E+01
    -23.427  0.0000E+00  0.2000E+01
    -23.302  0.0000E+00  0.2000E+01
    -23.177  0.0000E+00  0.2000E+01
    -23.053  0.0000E+00  0.2000E+01
    -22.928  0.0000E+00  0.2000E+01
    -22.803  0.0000E+00  0.2000E+01
    -22.679  0.0000E+00  0.2000E+01
    -22.554  0.0000E+00  0.2000E+01
    -22.429  0.0000E+00  0.2000E+01
    -22.304  0.0000E+00  0.2000E+01
    -22.180  0.0000E+00  0.2000E+01
    -22.055  0.0000E+00  0.2000E+01
    -21.930  0.0000E+00  0.2000E+01
    -21.805  0.0000E+00  0.2000E+01
    -21.681  0.0000E+00  0.2000E+01
    -21.556  0.0000E+00  0.2000E+01
    -21.431  0.0000E+00  0.2000E+01
    -21.306  0.0000E+00  0.2000E+01
    -21.182  0.0000E+00  0.2000E+01
    -21.057  0.0000E+00  0.2000E+01
    -20.932  0.0000E+00  0.2000E+01
    -20.808  0.0000E+00  0.2000E+01
    -20.683  0.0000E+00  0.2000E+01
    -20.558  0.0000E+00  0.2000E+01
    -20.433  0.0000E+00  0.2000E+01
    -20.309  0.0000E+00  0.2000E+01
    -20.184  0.0000E+00  0.2000E+01
    -20.059  0.0000E+00  0.2000E+01
    -19.934  0.0000E+00  0.2000E+01
    -19.810  0.0000E+00  0.2000E+01
    -19.685  0.0000E+00  0.2000E+01
    -19.560  0.0000E+00  0.2000E+01
    -19.435  0.0000E+00  0.2000E+01
    -19.311  0.0000E+00  0.2000E+01
    -19.186  0.0000E+00  0.2000E+01
    -19.061  0.0000E+00  0.2000E+01
    -18.936  0.0000E+00  0.2000E+01
    -18.812  0.0000E+00  0.2000E+01
    -18.687  0.0000E+00  0.2000E+01
    -18.562  0.0000E+00  0.2000E+01
    -18.438  0.0000E+00  0.2000E+01
    -18.313  0.0000E+00  0.2000E+01
    -18.188  0.0000E+00  0.2000E+01
    -18.063  0.0000E+00  0.2000E+01
    -17.939  0.0000E+00  0.2000E+01
    -17.814  0.0000E+00  0.2000E+01
    -17.689  0.0000E+00  0.2000E+01
    -17.564  0.0000E+00  0.2000E+01
    -17.440  0.0000E+00  0.2000E+01
    -17.315  0.0000E+00  0.2000E+01
    -17.190  0.0000E+00  0.2000E+01
    -17.065  0.0000E+00  0.2000E+01
    -16.941  0.0000E+00  0.2000E+01
    -16.816  0.0000E+00  0.2000E+01
    -16.691  0.0000E+00  0.2000E+01
    -16.567  0.0000E+00  0.2000E+01
    -16.442  0.0000E+00  0.2000E+01
    -16.317  0.0000E+00  0.2000E+01
    -16.192  0.0000E+00  0.2000E+01
    -16.068  0.0000E+00  0.2000E+01
    -15.943  0.0000E+00  0.2000E+01
    -15.818  0.0000E+00  0.2000E+01
    -15.693  0.0000E+00  0.2000E+01
    -15.569  0.0000E+00  0.2000E+01
    -15.444  0.0000E+00  0.2000E+01
    -15.319  0.0000E+00  0.2000E+01
    -15.194  0.0000E+00  0.2000E+01
    -15.070  0.0000E+00  0.2000E+01
    -14.945  0.0000E+00  0.2000E+01
    -14.820  0.2973E-12  0.2000E+01
    -14.696  0.1800E-09  0.2000E+01
    -14.571  0.5084E-07  0.2000E+01
    -14.446  0.6716E-05  0.2000E+01
    -14.321  0.4165E-03  0.2000E+01
    -14.197  0.1219E-01  0.2002E+01
    -14.072  0.1692E+00  0.2023E+01
    -13.947  0.1121E+01  0.2162E+01
    -13.822  0.3561E+01  0.2607E+01
    -13.698  0.5450E+01  0.3286E+01
    -13.573  0.4024E+01  0.3788E+01
    -13.448  0.1431E+01  0.3967E+01
    -13.323  0.2445E+00  0.3997E+01
    -13.199  0.1994E-01  0.4000E+01
    -13.074  0.7726E-03  0.4000E+01
    -12.949  0.1413E-04  0.4000E+01
    -12.825  0.1215E-06  0.4000E+01
    -12.700  0.4898E-09  0.4000E+01
    -12.575  0.7050E-09  0.4000E+01
    -12.450  0.1826E-06  0.4000E+01
    -12.326  0.2216E-04  0.4000E+01
    -12.201  0.1263E-02  0.4000E+01
    -12.076  0.3397E-01  0.4004E+01
    -11.951  0.4339E+00  0.4059E+01
    -11.827  0.2646E+01  0.4389E+01
    -11.702  0.7747E+01  0.5355E+01
    -11.577  0.1093E+02  0.6718E+01
    -11.452  0.7432E+01  0.7645E+01
    -11.328  0.2435E+01  0.7949E+01
    -11.203  0.3830E+00  0.7996E+01
    -11.078  0.2875E-01  0.8000E+01
    -10.954  0.1024E-02  0.8000E+01
    -10.829  0.1721E-04  0.8000E+01
    -10.704  0.1359E-06  0.8000E+01
    -10.579  0.5018E-09  0.8000E+01
    -10.455  0.8651E-12  0.8000E+01
    -10.330  0.0000E+00  0.8000E+01
    -10.205  0.0000E+00  0.8000E+01
    -10.080  0.0000E+00  0.8000E+01
     -9.956  0.0000E+00  0.8000E+01
     -9.831  0.3382E-13  0.8000E+01
     -9.706  0.2635E-10  0.8000E+01
     -9.581  0.9449E-08  0.8000E+01
     -9.457  0.1582E-05  0.8000E+01
     -9.332  0.1242E-03  0.8000E+01
     -9.207  0.4595E-02  0.8001E+01
     -9.082  0.8049E-01  0.8011E+01
     -8.958  0.6715E+00  0.8094E+01
     -8.833  0.2684E+01  0.8429E+01
     -8.708  0.5160E+01  0.9073E+01
     -8.584  0.4785E+01  0.9670E+01
     -8.459  0.2139E+01  0.9936E+01
     -8.334  0.4598E+00  0.9994E+01
     -8.209  0.4729E-01  0.1000E+02
     -8.085  0.2314E-02  0.1000E+02
     -7.960  0.5354E-04  0.1000E+02
     -7.835  0.5831E-06  0.1000E+02
     -7.710  0.2975E-08  0.1000E+02
     -7.586  0.7085E-11  0.1000E+02
     -7.461  0.7121E-14  0.1000E+02
     -7.336  0.0000E+00  0.1000E+02
     -7.211  0.0000E+00  0.1000E+02
     -7.087  0.0000E+00  0.1000E+02
     -6.962  0.0000E+00  0.1000E+02
     -6.837  0.0000E+00  0.1000E+02
     -6.713  0.0000E+00  0.1000E+02
     -6.588  0.0000E+00  0.1000E+02
     -6.463  0.0000E+00  0.1000E+02
     -6.338  0.0000E+00  0.1000E+02
     -6.214  0.0000E+00  0.1000E+02
     -6.089  0.0000E+00  0.1000E+02
     -5.964  0.0000E+00  0.1000E+02
     -5.839  0.0000E+00  0.1000E+02
     -5.715  0.0000E+00  0.1000E+02
     -5.590  0.0000E+00  0.1000E+02
     -5.465  0.0000E+00  0.1000E+02
     -5.340  0.0000E+00  0.1000E+02
     -5.216  0.0000E+00  0.1000E+02
     -5.091  0.0000E+00  0.1000E+02
     -4.966  0.0000E+00  0.1000E+02
     -4.842  0.0000E+00  0.1000E+02
     -4.717  0.0000E+00  0.1000E+02
     -4.592  0.0000E+00  0.1000E+02
     -4.467  0.0000E+00  0.1000E+02
     -4.343  0.0000E+00  0.1000E+02
     -4.218  0.0000E+00  0.1000E+02
     -4.093  0.0000E+00  0.1000E+02
     -3.968  0.0000E+00  0.1000E+02
     -3.844  0.0000E+00  0.1000E+02
     -3.719  0.0000E+00  0.1000E+02
     -3.594  0.0000E+00  0.1000E+02
     -3.469  0.0000E+00  0.1000E+02
     -3.345  0.0000E+00  0.1000E+02
     -3.220  0.0000E+00  0.1000E+02
     -3.095  0.0000E+00  0.1000E+02
     -2.971  0.0000E+00  0.1000E+02
     -2.846  0.0000E+00  0.1000E+02
     -2.721  0.8847E-12  0.1000E+02
     -2.596  0.5123E-09  0.1000E+02
     -2.472  0.1384E-06  0.1000E+02
     -2.347  0.1748E-04  0.1000E+02
     -2.222  0.1037E-02  0.1000E+02
     -2.097  0.2904E-01  0.1000E+02
     -1.973  0.3859E+00  0.1005E+02
     -1.848  0.2448E+01  0.1036E+02
     -1.723  0.7452E+01  0.1129E+02
     -1.598  0.1093E+02  0.1265E+02
     -1.474  0.7728E+01  0.1361E+02
     -1.349  0.2633E+01  0.1394E+02
     -1.224  0.4307E+00  0.1400E+02
     -1.100  0.3363E-01  0.1400E+02
     -0.975  0.1250E-02  0.1400E+02
     -0.850  0.2429E-03  0.1400E+02
     -0.725  0.7325E-02  0.1400E+02
     -0.601  0.1150E+00  0.1402E+02
     -0.476  0.8614E+00  0.1412E+02
     -0.351  0.3092E+01  0.1451E+02
     -0.226  0.5341E+01  0.1517E+02
     -0.102  0.4451E+01  0.1573E+02
      0.023  0.1788E+01  0.1595E+02
      0.148  0.3450E+00  0.1600E+02
      0.273  0.3184E-01  0.1600E+02
      0.397  0.1396E-02  0.1600E+02
      0.522  0.2894E-04  0.1600E+02
      0.647  0.2821E-06  0.1600E+02
      0.772  0.1667E-08  0.1600E+02
      0.896  0.9750E-07  0.1600E+02
      1.021  0.1174E-04  0.1600E+02
      1.146  0.6672E-03  0.1600E+02
      1.270  0.1809E-01  0.1600E+02
      1.395  0.2401E+00  0.1603E+02
      1.520  0.1643E+01  0.1624E+02
      1.645  0.6363E+01  0.1703E+02
      1.769  0.1541E+02  0.1895E+02
      1.894  0.2348E+02  0.2188E+02
      2.019  0.2070E+02  0.2446E+02
      2.144  0.9774E+01  0.2568E+02
      2.268  0.2889E+01  0.2604E+02
      2.393  0.2706E+01  0.2638E+02
      2.518  0.5021E+01  0.2701E+02
      2.643  0.4973E+01  0.2763E+02
      2.767  0.2382E+01  0.2792E+02
      2.892  0.5490E+00  0.2799E+02
      3.017  0.6057E-01  0.2800E+02
      3.141  0.3984E-02  0.2800E+02
      3.266  0.2066E-01  0.2800E+02
      3.391  0.2503E+00  0.2803E+02
      3.516  0.1454E+01  0.2822E+02
      3.640  0.4057E+01  0.2872E+02
      3.765  0.5514E+01  0.2941E+02
      3.890  0.4124E+01  0.2992E+02
      4.015  0.3598E+01  0.3037E+02
      4.139  0.5214E+01  0.3102E+02
      4.264  0.4937E+01  0.3164E+02
      4.389  0.2317E+01  0.3193E+02
      4.514  0.5239E+00  0.3199E+02
      4.638  0.5672E-01  0.3200E+02
      4.763  0.2923E-02  0.3200E+02
      4.888  0.7127E-04  0.3200E+02
      5.012  0.8180E-06  0.3200E+02
      5.137  0.4399E-08  0.3200E+02
      5.262  0.1104E-10  0.3200E+02
      5.387  0.1424E-13  0.3200E+02
      5.511  0.0000E+00  0.3200E+02
      5.636  0.0000E+00  0.3200E+02
      5.761  0.0000E+00  0.3200E+02
      5.886  0.0000E+00  0.3200E+02
      6.010  0.0000E+00  0.3200E+02
      6.135  0.0000E+00  0.3200E+02
