    2    2    1    1
  0.2560000E+03  0.8000000E-09  0.8000000E-09  0.8000000E-09  0.2000000E-16
  1.000000000000000E-004
  CAR 
 CO dimer in a box                       
     10      1     16
 
  0.0000000E+00  0.0000000E+00  0.0000000E+00  0.1000000E+01
    1      -29.285180   1.000000
    2      -13.749581   1.000000
    3      -11.643092   1.000000
    4      -11.643092   1.000000
    5       -8.721213   1.000000
    6       -1.657702   0.000000
    7       -1.657702   0.000000
    8       -0.257571   0.000000
    9        1.701911   0.000000
   10        1.867772   0.000000
   11        1.867772   0.000000
   12        1.894290   0.000000
   13        1.937081   0.000000
   14        2.516684   0.000000
   15        3.690935   0.000000
   16        4.135070   0.000000
