       N       E                     dE             d eps       ncg     rms          rms(c)
DAV:   1     0.556952697632E+02    0.55695E+02   -0.26117E+03    32   0.286E+02
DAV:   2    -0.763393115872E+01   -0.63329E+02   -0.63329E+02    32   0.865E+01
DAV:   3    -0.155872867353E+02   -0.79534E+01   -0.79534E+01    64   0.387E+01
DAV:   4    -0.155953432749E+02   -0.80565E-02   -0.80565E-02    32   0.156E+00
DAV:   5    -0.155953725406E+02   -0.29266E-04   -0.29266E-04    64   0.932E-02    0.618E+00
DAV:   6    -0.149588894136E+02    0.63648E+00   -0.34938E+00    32   0.745E+00    0.319E+00
DAV:   7    -0.148316136109E+02    0.12728E+00   -0.61635E-01    64   0.276E+00    0.164E+00
DAV:   8    -0.147934062380E+02    0.38207E-01   -0.14049E-01    64   0.166E+00    0.384E-01
DAV:   9    -0.147925117723E+02    0.89447E-03   -0.47339E-03    64   0.343E-01    0.637E-02
DAV:  10    -0.147935099044E+02   -0.99813E-03   -0.32587E-04    64   0.754E-02    0.340E-02
DAV:  11    -0.147958351501E+02   -0.23252E-02   -0.49590E-04    48   0.626E-02    0.140E-02
DAV:  12    -0.147968177875E+02   -0.98264E-03   -0.11091E-04    32   0.306E-02    0.614E-03
DAV:  13    -0.147971915920E+02   -0.37380E-03   -0.53117E-05    32   0.174E-02    0.311E-03
DAV:  14    -0.147973768622E+02   -0.18527E-03   -0.25137E-05    32   0.118E-02    0.142E-03
DAV:  15    -0.147973957815E+02   -0.18919E-04   -0.13486E-06    32   0.362E-03    0.546E-04
DAV:  16    -0.147974067214E+02   -0.10940E-04   -0.11442E-06    32   0.253E-03    0.263E-04
DAV:  17    -0.147974074504E+02   -0.72897E-06   -0.21541E-08    64   0.444E-04
   1 F= -.14797407E+02 E0= -.14797407E+02  d E =-.349740E-12
       N       E                     dE             d eps       ncg     rms          rms(c)
DAV:   1    -0.147728555354E+02    0.24551E-01   -0.23650E+00    32   0.909E+00    0.373E-01
DAV:   2    -0.147729217251E+02   -0.66190E-04   -0.32168E-02    64   0.105E+00    0.224E-01
DAV:   3    -0.147719126868E+02    0.10090E-02   -0.49736E-03    32   0.337E-01    0.506E-02
DAV:   4    -0.147719260382E+02   -0.13351E-04   -0.20374E-04    48   0.649E-02    0.307E-02
DAV:   5    -0.147719340243E+02   -0.79861E-05   -0.30981E-05    64   0.202E-02    0.133E-02
DAV:   6    -0.147719539219E+02   -0.19898E-04   -0.45126E-06    32   0.851E-03    0.257E-03
DAV:   7    -0.147719843182E+02   -0.30396E-04   -0.26524E-06    32   0.605E-03    0.174E-03
DAV:   8    -0.147720043130E+02   -0.19995E-04   -0.18103E-06    32   0.386E-03    0.769E-04
DAV:   9    -0.147720174311E+02   -0.13118E-04   -0.85326E-07    32   0.230E-03    0.328E-04
DAV:  10    -0.147720218666E+02   -0.44356E-05   -0.21307E-07    32   0.101E-03    0.164E-04
DAV:  11    -0.147720233132E+02   -0.14466E-05   -0.71029E-08    32   0.615E-04    0.855E-05
DAV:  12    -0.147720234732E+02   -0.16000E-06   -0.43841E-09    32   0.186E-04
   2 F= -.14772023E+02 E0= -.14772023E+02  d E =-.586681E-11
       N       E                     dE             d eps       ncg     rms          rms(c)
DAV:   1    -0.147827803373E+02   -0.10757E-01   -0.93529E+00    32   0.179E+01    0.749E-01
DAV:   2    -0.147795161453E+02    0.32642E-02   -0.10525E-01    32   0.189E+00    0.426E-01
DAV:   3    -0.147764223963E+02    0.30937E-02   -0.15753E-02    32   0.635E-01    0.105E-01
DAV:   4    -0.147765047631E+02   -0.82367E-04   -0.31844E-04    32   0.105E-01    0.570E-02
DAV:   5    -0.147766266660E+02   -0.12190E-03   -0.64868E-05    32   0.286E-02    0.924E-03
DAV:   6    -0.147766657622E+02   -0.39096E-04   -0.82806E-06    64   0.100E-02    0.440E-03
DAV:   7    -0.147767492937E+02   -0.83532E-04   -0.12601E-05    32   0.126E-02    0.268E-03
DAV:   8    -0.147767824761E+02   -0.33182E-04   -0.36699E-06    32   0.617E-03    0.159E-03
DAV:   9    -0.147768056632E+02   -0.23187E-04   -0.28224E-06    32   0.489E-03    0.519E-04
DAV:  10    -0.147768127881E+02   -0.71249E-05   -0.55321E-07    32   0.217E-03    0.374E-04
DAV:  11    -0.147768148348E+02   -0.20467E-05   -0.15767E-07    32   0.103E-03    0.135E-04
DAV:  12    -0.147768153635E+02   -0.52869E-06   -0.26981E-08    32   0.495E-04
   3 F= -.14776815E+02 E0= -.14776815E+02  d E =-.324735E-12
       N       E                     dE             d eps       ncg     rms          rms(c)
DAV:   1    -0.147755905825E+02    0.12243E-02   -0.25008E+00    32   0.932E+00    0.432E-01
DAV:   2    -0.147766795178E+02   -0.10889E-02   -0.16964E-02    32   0.827E-01    0.251E-01
DAV:   3    -0.147768954238E+02   -0.21591E-03   -0.11926E-03    64   0.139E-01    0.722E-02
DAV:   4    -0.147768518230E+02    0.43601E-04   -0.36320E-04    32   0.670E-02    0.151E-02
DAV:   5    -0.147768543117E+02   -0.24887E-05   -0.13271E-05    48   0.190E-02    0.525E-03
DAV:   6    -0.147768547864E+02   -0.47470E-06   -0.20968E-06    32   0.648E-03
   4 F= -.14776855E+02 E0= -.14776855E+02  d E =-.380689E-12
       N       E                     dE             d eps       ncg     rms          rms(c)
DAV:   1    -0.147825457085E+02   -0.56914E-02   -0.41231E+00    32   0.108E+01    0.794E-01
DAV:   2    -0.147748029546E+02    0.77428E-02   -0.51943E-02    32   0.119E+00    0.484E-01
DAV:   3    -0.147720325631E+02    0.27704E-02   -0.21104E-02    32   0.733E-01    0.149E-01
DAV:   4    -0.147718493675E+02    0.18320E-03   -0.14109E-03    64   0.150E-01    0.675E-02
DAV:   5    -0.147719183727E+02   -0.69005E-04   -0.33770E-04    32   0.784E-02    0.268E-02
DAV:   6    -0.147719682852E+02   -0.49912E-04   -0.41935E-05    64   0.350E-02    0.588E-03
DAV:   7    -0.147720936463E+02   -0.12536E-03   -0.13748E-05    32   0.119E-02    0.263E-03
DAV:   8    -0.147721591463E+02   -0.65500E-04   -0.50353E-06    32   0.603E-03    0.221E-03
DAV:   9    -0.147722057716E+02   -0.46625E-04   -0.50677E-06    32   0.624E-03    0.641E-04
DAV:  10    -0.147722161897E+02   -0.10418E-04   -0.59894E-07    32   0.192E-03    0.406E-04
DAV:  11    -0.147722196852E+02   -0.34956E-05   -0.17821E-07    32   0.100E-03    0.155E-04
DAV:  12    -0.147722206032E+02   -0.91791E-06   -0.39436E-08    32   0.496E-04
   5 F= -.14772221E+02 E0= -.14772221E+02  d E =-.867171E-12
