 vasp.5.4.1 24Jun15 (build Apr 04 2016 10:44:54) complex                        
  
 executed on                Titan date 2018.12.04  13:34:17
 running on   16 total cores
 distrk:  each k-point on   16 cores,    1 groups
 distr:  one band on NCORES_PER_BAND=   1 cores,   16 groups


--------------------------------------------------------------------------------------------------------


 INCAR:
 POTCAR:   PAW_RPBE O 08Apr2002                   
 POTCAR:   PAW_RPBE C 08Apr2002                   

 ----------------------------------------------------------------------------- 
|                                                                             |
|           W    W    AA    RRRRR   N    N  II  N    N   GGGG   !!!           |
|           W    W   A  A   R    R  NN   N  II  NN   N  G    G  !!!           |
|           W    W  A    A  R    R  N N  N  II  N N  N  G       !!!           |
|           W WW W  AAAAAA  RRRRR   N  N N  II  N  N N  G  GGG   !            |
|           WW  WW  A    A  R   R   N   NN  II  N   NN  G    G                |
|           W    W  A    A  R    R  N    N  II  N    N   GGGG   !!!           |
|                                                                             |
|      For optimal performance we recommend to set                            |
|        NCORE= 4 - approx SQRT( number of cores)                             |
|      NCORE specifies how many cores store one orbital (NPAR=cpu/NCORE).     |
|      This setting can  greatly improve the performance of VASP for DFT.     |
|      The default, NPAR=number of cores might be grossly inefficient         |
|      on modern multi-core architectures or massively parallel machines.     |
|      Do your own testing !!!!                                               |
|      Unfortunately you need to use the default for GW and RPA calculations. |
|      (for HF NCORE is supported but not extensively tested yet)             |
|                                                                             |
 ----------------------------------------------------------------------------- 

 POTCAR:   PAW_RPBE O 08Apr2002                   
   VRHFIN =O: s2p4                                                              
   LEXCH  = PE                                                                  
   EATOM  =   432.3788 eV,   31.7789 Ry                                         
                                                                                
   TITEL  = PAW_RPBE O 08Apr2002                                                
   LULTRA =        F    use ultrasoft PP ?                                      
   IUNSCR =        0    unscreen: 0-lin 1-nonlin 2-no                           
   RPACOR =     .000    partial core radius                                     
   POMASS =   16.000; ZVAL   =    6.000    mass and valenz                      
   RCORE  =    1.520    outmost cutoff radius                                   
   RWIGS  =    1.550; RWIGS  =     .820    wigner-seitz radius (au A)           
   ENMAX  =  400.000; ENMIN  =  300.000 eV                                      
   ICORE  =        2    local potential                                         
   LCOR   =        T    correct aug charges                                     
   LPAW   =        T    paw PP                                                  
   EAUG   =  605.392                                                            
   DEXC   =     .000                                                            
   RMAX   =    2.264    core radius for proj-oper                               
   RAUG   =    1.300    factor for augmentation sphere                          
   RDEP   =    1.550    radius for radial grids                                 
   QCUT   =   -5.520; QGAM   =   11.041    optimization parameters              
                                                                                
   Description                                                                  
     l     E      TYP  RCUT    TYP  RCUT                                        
     0   .000     23  1.200                                                     
     0  -.700     23  1.200                                                     
     1   .000     23  1.520                                                     
     1   .600     23  1.520                                                     
     2   .000      7  1.500                                                     
  local pseudopotential read in
  atomic valenz-charges read in
  non local Contribution for L=           0  read in
    real space projection operators read in
  non local Contribution for L=           0  read in
    real space projection operators read in
  non local Contribution for L=           1  read in
    real space projection operators read in
  non local Contribution for L=           1  read in
    real space projection operators read in
    PAW grid and wavefunctions read in
 
   number of l-projection  operators is LMAX  =           4
   number of lm-projection operators is LMMAX =           8
 
 POTCAR:   PAW_RPBE C 08Apr2002                   
   VRHFIN =C: s2p2                                                              
   LEXCH  = PE                                                                  
   EATOM  =   147.1560 eV,   10.8157 Ry                                         
                                                                                
   TITEL  = PAW_RPBE C 08Apr2002                                                
   LULTRA =        F    use ultrasoft PP ?                                      
   IUNSCR =        0    unscreen: 0-lin 1-nonlin 2-no                           
   RPACOR =     .000    partial core radius                                     
   POMASS =   12.011; ZVAL   =    4.000    mass and valenz                      
   RCORE  =    1.500    outmost cutoff radius                                   
   RWIGS  =    1.630; RWIGS  =     .863    wigner-seitz radius (au A)           
   ENMAX  =  400.000; ENMIN  =  300.000 eV                                      
   ICORE  =        2    local potential                                         
   LCOR   =        T    correct aug charges                                     
   LPAW   =        T    paw PP                                                  
   EAUG   =  644.873                                                            
   DEXC   =     .000                                                            
   RMAX   =    2.266    core radius for proj-oper                               
   RAUG   =    1.300    factor for augmentation sphere                          
   RDEP   =    1.501    radius for radial grids                                 
   RDEPT  =    1.300    core radius for aug-charge                              
   QCUT   =   -5.516; QGAM   =   11.032    optimization parameters              
                                                                                
   Description                                                                  
     l     E      TYP  RCUT    TYP  RCUT                                        
     0   .000     23  1.200                                                     
     0   .000     23  1.200                                                     
     1   .000     23  1.500                                                     
     1  2.500     23  1.500                                                     
     2   .000      7  1.500                                                     
  local pseudopotential read in
  atomic valenz-charges read in
  non local Contribution for L=           0  read in
    real space projection operators read in
  non local Contribution for L=           0  read in
    real space projection operators read in
  non local Contribution for L=           1  read in
    real space projection operators read in
  non local Contribution for L=           1  read in
    real space projection operators read in
    PAW grid and wavefunctions read in
 
   number of l-projection  operators is LMAX  =           4
   number of lm-projection operators is LMMAX =           8
 
 PAW_RPBE O 08Apr2002                   :
 energy of atom  1       EATOM= -432.3788
 kinetic energy error for atom=    0.1156 (will be added to EATOM!!)
 PAW_RPBE C 08Apr2002                   :
 energy of atom  2       EATOM= -147.1560
 kinetic energy error for atom=    0.0288 (will be added to EATOM!!)
 
 
 POSCAR: O atom in a box                         
  positions in cartesian coordinates
  No initial velocities read in
 exchange correlation table for  LEXCH =        8
   RHO(1)=    0.500       N(1)  =     2000
   RHO(2)=  100.500       N(2)  =     4000
 


--------------------------------------------------------------------------------------------------------


 ion  position               nearest neighbor table
   1  0.000  0.000  0.000-   2 1.14
   2  0.000  0.000  0.143-   1 1.14
 
  LATTYP: Found a simple cubic cell.
 ALAT       =     8.0000000000
  
  Lattice vectors:
  
 A1 = (   8.0000000000,   0.0000000000,   0.0000000000)
 A2 = (   0.0000000000,   8.0000000000,   0.0000000000)
 A3 = (   0.0000000000,   0.0000000000,   8.0000000000)


Analysis of symmetry for initial positions (statically):
=====================================================================
 Subroutine PRICEL returns:
 Original cell was already a primitive cell.
 

 Routine SETGRP: Setting up the symmetry group for a 
 simple cubic supercell.


 Subroutine GETGRP returns: Found  8 space group operations
 (whereof  8 operations were pure point group operations)
 out of a pool of 48 trial point group operations.


The static configuration has the point symmetry C_4v.


Analysis of symmetry for dynamics (positions and initial velocities):
=====================================================================
 Subroutine PRICEL returns:
 Original cell was already a primitive cell.
 

 Routine SETGRP: Setting up the symmetry group for a 
 simple cubic supercell.


 Subroutine GETGRP returns: Found  8 space group operations
 (whereof  8 operations were pure point group operations)
 out of a pool of 48 trial point group operations.


The dynamic configuration has the point symmetry C_4v.


Analysis of constrained symmetry for selective dynamics:
=====================================================================
 Subroutine PRICEL returns:
 Original cell was already a primitive cell.
 

 Routine SETGRP: Setting up the symmetry group for a 
 simple cubic supercell.


 Subroutine GETGRP returns: Found  8 space group operations
 (whereof  8 operations were pure point group operations)
 out of a pool of 48 trial point group operations.


The constrained configuration has the point symmetry C_4v.
 
 
 KPOINTS: Gamma-point only                        
  k-points in reciprocal lattice
Space group operators:
 irot       det(A)        alpha          n_x          n_y          n_z        tau_x        tau_y        tau_z
    1     1.000000     0.000000     1.000000     0.000000     0.000000     0.000000     0.000000     0.000000
    2     1.000000    90.000000     0.000000     0.000000    -1.000000     0.000000     0.000000     0.000000
    3     1.000000   180.000000     0.000000     0.000000     1.000000     0.000000     0.000000     0.000000
    4     1.000000    90.000000     0.000000     0.000000     1.000000     0.000000     0.000000     0.000000
    5    -1.000000   180.000000     1.000000     0.000000     0.000000     0.000000     0.000000     0.000000
    6    -1.000000   180.000000     0.707107     0.707107     0.000000     0.000000     0.000000     0.000000
    7    -1.000000   180.000000     0.000000     1.000000     0.000000     0.000000     0.000000     0.000000
    8    -1.000000   180.000000     0.707107    -0.707107     0.000000     0.000000     0.000000     0.000000

 ----------------------------------------------------------------------------- 
|                                                                             |
|           W    W    AA    RRRRR   N    N  II  N    N   GGGG   !!!           |
|           W    W   A  A   R    R  NN   N  II  NN   N  G    G  !!!           |
|           W    W  A    A  R    R  N N  N  II  N N  N  G       !!!           |
|           W WW W  AAAAAA  RRRRR   N  N N  II  N  N N  G  GGG   !            |
|           WW  WW  A    A  R   R   N   NN  II  N   NN  G    G                |
|           W    W  A    A  R    R  N    N  II  N    N   GGGG   !!!           |
|                                                                             |
|      Your generating k-point grid is not commensurate to the symmetry       |
|      of the lattice.  This can cause   slow convergence with respect        |
|      to k-points for HF type calculations                                   |
|      suggested SOLUTIONS:                                                   |
|       ) if not already the case, use automatic k-point generation           |
|       ) shift your grid to Gamma (G) (e.g. required for hex or fcc lattice) |
|                                                                             |
 ----------------------------------------------------------------------------- 

 
 Subroutine IBZKPT_HF returns following result:
 ==============================================
 
 Found      1 k-points in 1st BZ
 the following      1 k-points will be used (e.g. in the exchange kernel)
 Following reciprocal coordinates:   # in IRBZ
  0.000000  0.000000  0.000000    1.00000000   1 t-inv F


--------------------------------------------------------------------------------------------------------




 Dimension of arrays:
   k-points           NKPTS =      1   k-points in BZ     NKDIM =      1   number of bands    NBANDS=     16
   number of dos      NEDOS =    301   number of ions     NIONS =      2
   non local maximal  LDIM  =      4   non local SUM 2l+1 LMDIM =      8
   total plane-waves  NPLWV =  64000
   max r-space proj   IRMAX =      1   max aug-charges    IRDMAX=   1821
   dimension x,y,z NGX =    40 NGY =   40 NGZ =   40
   dimension x,y,z NGXF=    80 NGYF=   80 NGZF=   80
   support grid    NGXF=    80 NGYF=   80 NGZF=   80
   ions per type =               1   1
 NGX,Y,Z   is equivalent  to a cutoff of   8.31,  8.31,  8.31 a.u.
 NGXF,Y,Z  is equivalent  to a cutoff of  16.62, 16.62, 16.62 a.u.


 I would recommend the setting:
   dimension x,y,z NGX =    39 NGY =   39 NGZ =   39
 SYSTEM =  CO dimer in a box                       
 POSCAR =  O atom in a box                         

 Startparameter for this run:
   NWRITE =      2    write-flag & timer
   PREC   = normal    normal or accurate (medium, high low for compatibility)
   ISTART =      0    job   : 0-new  1-cont  2-samecut
   ICHARG =      2    charge: 1-file 2-atom 10-const
   ISPIN  =      1    spin polarized calculation?
   LNONCOLLINEAR =      F non collinear calculations
   LSORBIT =      F    spin-orbit coupling
   INIWAV =      1    electr: 0-lowe 1-rand  2-diag
   LASPH  =      F    aspherical Exc in radial PAW
   METAGGA=      F    non-selfconsistent MetaGGA calc.

 Electronic Relaxation 1
   ENCUT  =  400.0 eV  29.40 Ry    5.42 a.u.  13.05 13.05 13.05*2*pi/ulx,y,z
   ENINI  =  400.0     initial cutoff
   ENAUG  =  644.9 eV  augmentation charge cutoff
   NELM   =     60;   NELMIN=  2; NELMDL= -5     # of ELM steps 
   EDIFF  = 0.1E-05   stopping-criterion for ELM
   LREAL  =      F    real-space projection
   NLSPLINE    = F    spline interpolate recip. space projectors
   LCOMPAT=      F    compatible to vasp.4.4
   GGA_COMPAT  = T    GGA compatible to vasp.4.4-vasp.4.6
   LMAXPAW     = -100 max onsite density
   LMAXMIX     =    2 max onsite mixed and CHGCAR
   VOSKOWN=      0    Vosko Wilk Nusair interpolation
   ROPT   =    0.00000   0.00000
 Ionic relaxation
   EDIFFG = 0.1E-04   stopping-criterion for IOM
   NSW    =     61    number of steps for IOM
   NBLOCK =      1;   KBLOCK =      1    inner block; outer block 
   IBRION =      5    ionic relax: 0-MD 1-quasi-New 2-CG
   NFREE  =      2    steps in history (QN), initial steepest desc. (CG)
   ISIF   =      2    stress and relaxation
   IWAVPR =     11    prediction:  0-non 1-charg 2-wave 3-comb
   ISYM   =      2    0-nonsym 1-usesym 2-fastsym
   LCORR  =      T    Harris-Foulkes like correction to forces

   POTIM  = 0.0200    time-step for ionic-motion
   TEIN   =    0.0    initial temperature
   TEBEG  =    0.0;   TEEND  =   0.0 temperature during run
   SMASS  =  -3.00    Nose mass-parameter (am)
   estimated Nose-frequenzy (Omega)   =  0.10E-29 period in steps =****** mass=  -0.146E-26a.u.
   SCALEE = 1.0000    scale energy and forces
   NPACO  =    256;   APACO  = 16.0  distance and # of slots for P.C.
   PSTRESS=    0.0 pullay stress

  Mass of Ions in am
   POMASS =  16.00 12.01
  Ionic Valenz
   ZVAL   =   6.00  4.00
  Atomic Wigner-Seitz radii
   RWIGS  =  -1.00 -1.00
  virtual crystal weights 
   VCA    =   1.00  1.00
   NELECT =      10.0000    total number of electrons
   NUPDOWN=      -1.0000    fix difference up-down

 DOS related values:
   EMIN   =  10.00;   EMAX   =-10.00  energy-range for DOS
   EFERMI =   0.00
   ISMEAR =     0;   SIGMA  =   0.20  broadening in eV -4-tet -1-fermi 0-gaus

 Electronic relaxation 2 (details)
   IALGO  =     38    algorithm
   LDIAG  =      T    sub-space diagonalisation (order eigenvalues)
   LSUBROT=      F    optimize rotation matrix (better conditioning)
   TURBO    =      0    0=normal 1=particle mesh
   IRESTART =      0    0=no restart 2=restart with 2 vectors
   NREBOOT  =      0    no. of reboots
   NMIN     =      0    reboot dimension
   EREF     =   0.00    reference energy to select bands
   IMIX   =      4    mixing-type and parameters
     AMIX     =   0.40;   BMIX     =  1.00
     AMIX_MAG =   1.60;   BMIX_MAG =  1.00
     AMIN     =   0.10
     WC   =   100.;   INIMIX=   1;  MIXPRE=   1;  MAXMIX= -45

 Intra band minimization:
   WEIMIN = 0.0010     energy-eigenvalue tresh-hold
   EBREAK =  0.16E-07  absolut break condition
   DEPER  =   0.30     relativ break condition  

   TIME   =   0.40     timestep for ELM

  volume/ion in A,a.u.               =     256.00      1727.57
  Fermi-wavevector in a.u.,A,eV,Ry     =   0.440878  0.833138  2.644608  0.194373
  Thomas-Fermi vector in A             =   1.415836
 
 Write flags
   LWAVE  =      T    write WAVECAR
   LCHARG =      T    write CHGCAR
   LVTOT  =      F    write LOCPOT, total local potential
   LVHAR  =      F    write LOCPOT, Hartree potential only
   LELF   =      F    write electronic localiz. function (ELF)
   LORBIT =      0    0 simple, 1 ext, 2 COOP (PROOUT)


 Dipole corrections
   LMONO  =      F    monopole corrections only (constant potential shift)
   LDIPOL =      F    correct potential (dipole corrections)
   IDIPOL =      0    1-x, 2-y, 3-z, 4-all directions 
   EPSILON=  1.0000000 bulk dielectric constant

 Exchange correlation treatment:
   GGA     =    --    GGA type
   LEXCH   =     8    internal setting for exchange type
   VOSKOWN=      0    Vosko Wilk Nusair interpolation
   LHFCALC =     F    Hartree Fock is set to
   LHFONE  =     F    Hartree Fock one center treatment
   AEXX    =    0.0000 exact exchange contribution

 Linear response parameters
   LEPSILON=     F    determine dielectric tensor
   LRPA    =     F    only Hartree local field effects (RPA)
   LNABLA  =     F    use nabla operator in PAW spheres
   LVEL    =     F    velocity operator in full k-point grid
   LINTERFAST=   F  fast interpolation
   KINTER  =     0    interpolate to denser k-point grid
   CSHIFT  =0.1000    complex shift for real part using Kramers Kronig
   OMEGAMAX=  -1.0    maximum frequency
   DEG_THRESHOLD= 0.2000000E-02 threshold for treating states as degnerate
   RTIME   =    0.100 relaxation time in fs

 Orbital magnetization related:
   ORBITALMAG=     F  switch on orbital magnetization
   LCHIMAG   =     F  perturbation theory with respect to B field
   DQ        =  0.001000  dq finite difference perturbation B field



--------------------------------------------------------------------------------------------------------


 finite differences
   using selective dynamics as specified on POSCAR
   WARNING: If single coordinates had been selected the selection of coordinates
            is made according to the corresponding   d i r e c t   coordinates!
            Don't support selection of single cartesian coordinates -- sorry ...
  !
 charge density and potential will be updated during run
 non-spin polarized calculation
 Variant of blocked Davidson
 Davidson routine will perform the subspace rotation
 perform sub-space diagonalisation
    after iterative eigenvector-optimisation
 modified Broyden-mixing scheme, WC =      100.0
 initial mixing is a Kerker type mixing with AMIX =  0.4000 and BMIX =      1.0000
 Hartree-type preconditioning will be used
 using additional bands           11
 reciprocal scheme for non local part
 calculate Harris-corrections to forces 
   (improved forces if not selfconsistent)
 use gradient corrections 
 use of overlap-Matrix (Vanderbilt PP)
 Gauss-broadening in eV      SIGMA  =   0.20


--------------------------------------------------------------------------------------------------------


  energy-cutoff  :      400.00
  volume of cell :      512.00
      direct lattice vectors                 reciprocal lattice vectors
     8.000000000  0.000000000  0.000000000     0.125000000  0.000000000  0.000000000
     0.000000000  8.000000000  0.000000000     0.000000000  0.125000000  0.000000000
     0.000000000  0.000000000  8.000000000     0.000000000  0.000000000  0.125000000

  length of vectors
     8.000000000  8.000000000  8.000000000     0.125000000  0.125000000  0.125000000


 
 k-points in units of 2pi/SCALE and weight: Gamma-point only                        
   0.00000000  0.00000000  0.00000000       1.000
 
 k-points in reciprocal lattice and weights: Gamma-point only                        
   0.00000000  0.00000000  0.00000000       1.000
 
 position of ions in fractional coordinates (direct lattice) 
   0.00000000  0.00000000  0.00000000
   0.00000000  0.00000000  0.14287500
 
 position of ions in cartesian coordinates  (Angst):
   0.00000000  0.00000000  0.00000000
   0.00000000  0.00000000  1.14300000
 


--------------------------------------------------------------------------------------------------------


 k-point  1 :   0.0000 0.0000 0.0000  plane waves:    9315

 maximum and minimum number of plane-waves per node :      9315     9315

 maximum number of plane-waves:      9315
 maximum index in each direction: 
   IXMAX=   13   IYMAX=   13   IZMAX=   13
   IXMIN=  -13   IYMIN=  -13   IZMIN=  -13

 WARNING: aliasing errors must be expected set NGX to  54 to avoid them
 WARNING: aliasing errors must be expected set NGY to  54 to avoid them
 WARNING: aliasing errors must be expected set NGZ to  54 to avoid them
 aliasing errors are usually negligible using standard VASP settings
 and one can safely disregard these warnings

 serial   3D FFT for wavefunctions
 parallel 3D FFT for charge:
    minimum data exchange during FFTs selected (reduces bandwidth)


 total amount of memory used by VASP on root node    37433. kBytes
========================================================================

   base      :      30000. kBytes
   nonl-proj :       1492. kBytes
   fftplans  :       1377. kBytes
   grid      :       4409. kBytes
   one-center:          6. kBytes
   wavefun   :        149. kBytes
 
     INWAV:  cpu time    0.0000: real time    0.0000
 Broyden mixing: mesh for mixing (old mesh)
   NGX = 27   NGY = 27   NGZ = 27
  (NGX  = 80   NGY  = 80   NGZ  = 80)
  gives a total of  19683 points

 initial charge density was supplied:
 charge density of overlapping atoms calculated
 number of electron      10.0000000 magnetization 
 keeping initial charge density in first step


--------------------------------------------------------------------------------------------------------


 Maximum index for augmentation-charges          169 (set IRDMAX)


--------------------------------------------------------------------------------------------------------


 First call to EWALD:  gamma=   0.222
 Maximum number of real-space cells 3x 3x 3
 Maximum number of reciprocal cells 3x 3x 3

 FEWALD executed in parallel
    FEWALD:  cpu time    0.0040: real time    0.0022


----------------------------------------- Iteration    1(   1)  ---------------------------------------


    POTLOK:  cpu time    0.0680: real time    0.0673
    SETDIJ:  cpu time    0.0040: real time    0.0019
     EDDAV:  cpu time    0.0400: real time    0.0406
       DOS:  cpu time    0.0000: real time    0.0002
    --------------------------------------------
      LOOP:  cpu time    0.1120: real time    0.1151

 eigenvalue-minimisations  :    32
 total energy-change (2. order) : 0.5569527E+02  (-0.2611689E+03)
 number of electron      10.0000000 magnetization 
 augmentation part       10.0000000 magnetization 

 Free energy of the ion-electron system (eV)
  ---------------------------------------------------
  alpha Z        PSCENC =         0.85010715
  Ewald energy   TEWEN  =        48.90784304
  -Hartree energ DENC   =      -512.54826743
  -exchange      EXHF   =         0.00000000
  -V(xc)+E(xc)   XCENC  =        39.84835132
  PAW double counting   =       283.82984571     -286.83001101
  entropy T*S    EENTRO =        -0.00000000
  eigenvalues    EBANDS =       -97.75301892
  atomic energy  EATOM  =       579.39041991
  Solvation  Ediel_sol  =         0.00000000
  ---------------------------------------------------
  free energy    TOTEN  =        55.69526976 eV

  energy without entropy =       55.69526976  energy(sigma->0) =       55.69526976


--------------------------------------------------------------------------------------------------------




----------------------------------------- Iteration    1(   2)  ---------------------------------------


     EDDAV:  cpu time    0.0400: real time    0.0379
       DOS:  cpu time    0.0000: real time    0.0001
    --------------------------------------------
      LOOP:  cpu time    0.0400: real time    0.0444

 eigenvalue-minimisations  :    32
 total energy-change (2. order) :-0.6332920E+02  (-0.6332920E+02)
 number of electron      10.0000000 magnetization 
 augmentation part       10.0000000 magnetization 

 Free energy of the ion-electron system (eV)
  ---------------------------------------------------
  alpha Z        PSCENC =         0.85010715
  Ewald energy   TEWEN  =        48.90784304
  -Hartree energ DENC   =      -512.54826743
  -exchange      EXHF   =         0.00000000
  -V(xc)+E(xc)   XCENC  =        39.84835132
  PAW double counting   =       283.82984571     -286.83001101
  entropy T*S    EENTRO =        -0.00000000
  eigenvalues    EBANDS =      -161.08221984
  atomic energy  EATOM  =       579.39041991
  Solvation  Ediel_sol  =         0.00000000
  ---------------------------------------------------
  free energy    TOTEN  =        -7.63393116 eV

  energy without entropy =       -7.63393116  energy(sigma->0) =       -7.63393116


--------------------------------------------------------------------------------------------------------




----------------------------------------- Iteration    1(   3)  ---------------------------------------


     EDDAV:  cpu time    0.0760: real time    0.0761
       DOS:  cpu time    0.0000: real time    0.0001
    --------------------------------------------
      LOOP:  cpu time    0.0760: real time    0.0823

 eigenvalue-minimisations  :    64
 total energy-change (2. order) :-0.7953356E+01  (-0.7953356E+01)
 number of electron      10.0000000 magnetization 
 augmentation part       10.0000000 magnetization 

 Free energy of the ion-electron system (eV)
  ---------------------------------------------------
  alpha Z        PSCENC =         0.85010715
  Ewald energy   TEWEN  =        48.90784304
  -Hartree energ DENC   =      -512.54826743
  -exchange      EXHF   =         0.00000000
  -V(xc)+E(xc)   XCENC  =        39.84835132
  PAW double counting   =       283.82984571     -286.83001101
  entropy T*S    EENTRO =        -0.00000000
  eigenvalues    EBANDS =      -169.03557542
  atomic energy  EATOM  =       579.39041991
  Solvation  Ediel_sol  =         0.00000000
  ---------------------------------------------------
  free energy    TOTEN  =       -15.58728674 eV

  energy without entropy =      -15.58728674  energy(sigma->0) =      -15.58728674


--------------------------------------------------------------------------------------------------------




----------------------------------------- Iteration    1(   4)  ---------------------------------------


     EDDAV:  cpu time    0.0360: real time    0.0377
       DOS:  cpu time    0.0000: real time    0.0001
    --------------------------------------------
      LOOP:  cpu time    0.0400: real time    0.0435

 eigenvalue-minimisations  :    32
 total energy-change (2. order) :-0.8056540E-02  (-0.8056540E-02)
 number of electron      10.0000000 magnetization 
 augmentation part       10.0000000 magnetization 

 Free energy of the ion-electron system (eV)
  ---------------------------------------------------
  alpha Z        PSCENC =         0.85010715
  Ewald energy   TEWEN  =        48.90784304
  -Hartree energ DENC   =      -512.54826743
  -exchange      EXHF   =         0.00000000
  -V(xc)+E(xc)   XCENC  =        39.84835132
  PAW double counting   =       283.82984571     -286.83001101
  entropy T*S    EENTRO =        -0.00000000
  eigenvalues    EBANDS =      -169.04363196
  atomic energy  EATOM  =       579.39041991
  Solvation  Ediel_sol  =         0.00000000
  ---------------------------------------------------
  free energy    TOTEN  =       -15.59534327 eV

  energy without entropy =      -15.59534327  energy(sigma->0) =      -15.59534327


--------------------------------------------------------------------------------------------------------




----------------------------------------- Iteration    1(   5)  ---------------------------------------


     EDDAV:  cpu time    0.0760: real time    0.0745
       DOS:  cpu time    0.0000: real time    0.0001
    CHARGE:  cpu time    0.0200: real time    0.0238
    MIXING:  cpu time    0.0000: real time    0.0012
    --------------------------------------------
      LOOP:  cpu time    0.1040: real time    0.1058

 eigenvalue-minimisations  :    64
 total energy-change (2. order) :-0.2926575E-04  (-0.2926579E-04)
 number of electron      10.0000114 magnetization 
 augmentation part        0.7220199 magnetization 

 Broyden mixing:
  rms(total) = 0.61800E+00    rms(broyden)= 0.61674E+00
  rms(prec ) = 0.82916E+00
  weight for this iteration     100.00

 Free energy of the ion-electron system (eV)
  ---------------------------------------------------
  alpha Z        PSCENC =         0.85010715
  Ewald energy   TEWEN  =        48.90784304
  -Hartree energ DENC   =      -512.54826743
  -exchange      EXHF   =         0.00000000
  -V(xc)+E(xc)   XCENC  =        39.84835132
  PAW double counting   =       283.82984571     -286.83001101
  entropy T*S    EENTRO =        -0.00000000
  eigenvalues    EBANDS =      -169.04366123
  atomic energy  EATOM  =       579.39041991
  Solvation  Ediel_sol  =         0.00000000
  ---------------------------------------------------
  free energy    TOTEN  =       -15.59537254 eV

  energy without entropy =      -15.59537254  energy(sigma->0) =      -15.59537254


--------------------------------------------------------------------------------------------------------




----------------------------------------- Iteration    1(   6)  ---------------------------------------


    POTLOK:  cpu time    0.0440: real time    0.0428
    SETDIJ:  cpu time    0.0000: real time    0.0019
     EDDAV:  cpu time    0.0400: real time    0.0394
       DOS:  cpu time    0.0000: real time    0.0001
    CHARGE:  cpu time    0.0160: real time    0.0164
    MIXING:  cpu time    0.0040: real time    0.0012
    --------------------------------------------
      LOOP:  cpu time    0.1040: real time    0.1088

 eigenvalue-minimisations  :    32
 total energy-change (2. order) : 0.6364831E+00  (-0.3493828E+00)
 number of electron      10.0000099 magnetization 
 augmentation part        0.6433659 magnetization 

 Broyden mixing:
  rms(total) = 0.31850E+00    rms(broyden)= 0.31814E+00
  rms(prec ) = 0.41157E+00
  weight for this iteration     100.00

 eigenvalues of (default mixing * dielectric matrix)
  average eigenvalue GAMMA=   1.0048
  1.0048

 Free energy of the ion-electron system (eV)
  ---------------------------------------------------
  alpha Z        PSCENC =         0.85010715
  Ewald energy   TEWEN  =        48.90784304
  -Hartree energ DENC   =      -526.39832799
  -exchange      EXHF   =         0.00000000
  -V(xc)+E(xc)   XCENC  =        40.65659199
  PAW double counting   =       331.51412100     -334.68017046
  entropy T*S    EENTRO =        -0.00000000
  eigenvalues    EBANDS =      -155.19947404
  atomic energy  EATOM  =       579.39041991
  Solvation  Ediel_sol  =         0.00000000
  ---------------------------------------------------
  free energy    TOTEN  =       -14.95888941 eV

  energy without entropy =      -14.95888941  energy(sigma->0) =      -14.95888941


--------------------------------------------------------------------------------------------------------




----------------------------------------- Iteration    1(   7)  ---------------------------------------


    POTLOK:  cpu time    0.0440: real time    0.0428
    SETDIJ:  cpu time    0.0000: real time    0.0019
     EDDAV:  cpu time    0.0760: real time    0.0757
       DOS:  cpu time    0.0000: real time    0.0001
    CHARGE:  cpu time    0.0200: real time    0.0163
    MIXING:  cpu time    0.0000: real time    0.0012
    --------------------------------------------
      LOOP:  cpu time    0.1400: real time    0.1436

 eigenvalue-minimisations  :    64
 total energy-change (2. order) : 0.1272758E+00  (-0.6163482E-01)
 number of electron      10.0000104 magnetization 
 augmentation part        0.6646151 magnetization 

 Broyden mixing:
  rms(total) = 0.16350E+00    rms(broyden)= 0.16349E+00
  rms(prec ) = 0.20936E+00
  weight for this iteration     100.00

 eigenvalues of (default mixing * dielectric matrix)
  average eigenvalue GAMMA=   1.4068
  0.7428  2.0708

 Free energy of the ion-electron system (eV)
  ---------------------------------------------------
  alpha Z        PSCENC =         0.85010715
  Ewald energy   TEWEN  =        48.90784304
  -Hartree energ DENC   =      -528.10347894
  -exchange      EXHF   =         0.00000000
  -V(xc)+E(xc)   XCENC  =        40.77869268
  PAW double counting   =       347.61803871     -350.75761616
  entropy T*S    EENTRO =        -0.00000000
  eigenvalues    EBANDS =      -153.51562000
  atomic energy  EATOM  =       579.39041991
  Solvation  Ediel_sol  =         0.00000000
  ---------------------------------------------------
  free energy    TOTEN  =       -14.83161361 eV

  energy without entropy =      -14.83161361  energy(sigma->0) =      -14.83161361


--------------------------------------------------------------------------------------------------------




----------------------------------------- Iteration    1(   8)  ---------------------------------------


    POTLOK:  cpu time    0.0440: real time    0.0422
    SETDIJ:  cpu time    0.0000: real time    0.0019
     EDDAV:  cpu time    0.0760: real time    0.0750
       DOS:  cpu time    0.0000: real time    0.0001
    CHARGE:  cpu time    0.0160: real time    0.0164
    MIXING:  cpu time    0.0040: real time    0.0012
    --------------------------------------------
      LOOP:  cpu time    0.1400: real time    0.1430

 eigenvalue-minimisations  :    64
 total energy-change (2. order) : 0.3820737E-01  (-0.1404862E-01)
 number of electron      10.0000102 magnetization 
 augmentation part        0.6529279 magnetization 

 Broyden mixing:
  rms(total) = 0.38378E-01    rms(broyden)= 0.38352E-01
  rms(prec ) = 0.51268E-01
  weight for this iteration     100.00

 eigenvalues of (default mixing * dielectric matrix)
  average eigenvalue GAMMA=   1.5579
  2.3102  1.6470  0.7165

 Free energy of the ion-electron system (eV)
  ---------------------------------------------------
  alpha Z        PSCENC =         0.85010715
  Ewald energy   TEWEN  =        48.90784304
  -Hartree energ DENC   =      -532.63214524
  -exchange      EXHF   =         0.00000000
  -V(xc)+E(xc)   XCENC  =        41.05571012
  PAW double counting   =       373.02463767     -376.16711887
  entropy T*S    EENTRO =        -0.00000000
  eigenvalues    EBANDS =      -149.22286000
  atomic energy  EATOM  =       579.39041991
  Solvation  Ediel_sol  =         0.00000000
  ---------------------------------------------------
  free energy    TOTEN  =       -14.79340624 eV

  energy without entropy =      -14.79340624  energy(sigma->0) =      -14.79340624


--------------------------------------------------------------------------------------------------------




----------------------------------------- Iteration    1(   9)  ---------------------------------------


    POTLOK:  cpu time    0.0400: real time    0.0416
    SETDIJ:  cpu time    0.0040: real time    0.0019
     EDDAV:  cpu time    0.0760: real time    0.0750
       DOS:  cpu time    0.0000: real time    0.0001
    CHARGE:  cpu time    0.0160: real time    0.0164
    MIXING:  cpu time    0.0000: real time    0.0013
    --------------------------------------------
      LOOP:  cpu time    0.1360: real time    0.1430

 eigenvalue-minimisations  :    64
 total energy-change (2. order) : 0.8944657E-03  (-0.4733924E-03)
 number of electron      10.0000102 magnetization 
 augmentation part        0.6527445 magnetization 

 Broyden mixing:
  rms(total) = 0.63696E-02    rms(broyden)= 0.63652E-02
  rms(prec ) = 0.14617E-01
  weight for this iteration     100.00

 eigenvalues of (default mixing * dielectric matrix)
  average eigenvalue GAMMA=   1.5042
  2.4449  0.7196  1.1164  1.7361

 Free energy of the ion-electron system (eV)
  ---------------------------------------------------
  alpha Z        PSCENC =         0.85010715
  Ewald energy   TEWEN  =        48.90784304
  -Hartree energ DENC   =      -532.53644960
  -exchange      EXHF   =         0.00000000
  -V(xc)+E(xc)   XCENC  =        41.04753127
  PAW double counting   =       376.76980462     -379.88014372
  entropy T*S    EENTRO =        -0.00000000
  eigenvalues    EBANDS =      -149.34162444
  atomic energy  EATOM  =       579.39041991
  Solvation  Ediel_sol  =         0.00000000
  ---------------------------------------------------
  free energy    TOTEN  =       -14.79251177 eV

  energy without entropy =      -14.79251177  energy(sigma->0) =      -14.79251177


--------------------------------------------------------------------------------------------------------




----------------------------------------- Iteration    1(  10)  ---------------------------------------


    POTLOK:  cpu time    0.0400: real time    0.0413
    SETDIJ:  cpu time    0.0000: real time    0.0019
     EDDAV:  cpu time    0.0760: real time    0.0752
       DOS:  cpu time    0.0000: real time    0.0001
    CHARGE:  cpu time    0.0160: real time    0.0164
    MIXING:  cpu time    0.0040: real time    0.0014
    --------------------------------------------
      LOOP:  cpu time    0.1400: real time    0.1421

 eigenvalue-minimisations  :    64
 total energy-change (2. order) :-0.9981322E-03  (-0.3258655E-04)
 number of electron      10.0000102 magnetization 
 augmentation part        0.6532506 magnetization 

 Broyden mixing:
  rms(total) = 0.33992E-02    rms(broyden)= 0.33982E-02
  rms(prec ) = 0.95150E-02
  weight for this iteration     100.00

 eigenvalues of (default mixing * dielectric matrix)
  average eigenvalue GAMMA=   1.7634
  0.7205  1.0059  2.9853  2.4556  1.6496

 Free energy of the ion-electron system (eV)
  ---------------------------------------------------
  alpha Z        PSCENC =         0.85010715
  Ewald energy   TEWEN  =        48.90784304
  -Hartree energ DENC   =      -532.66466463
  -exchange      EXHF   =         0.00000000
  -V(xc)+E(xc)   XCENC  =        41.05210680
  PAW double counting   =       377.22582648     -380.32921929
  entropy T*S    EENTRO =        -0.00000000
  eigenvalues    EBANDS =      -149.22592936
  atomic energy  EATOM  =       579.39041991
  Solvation  Ediel_sol  =         0.00000000
  ---------------------------------------------------
  free energy    TOTEN  =       -14.79350990 eV

  energy without entropy =      -14.79350990  energy(sigma->0) =      -14.79350990


--------------------------------------------------------------------------------------------------------




----------------------------------------- Iteration    1(  11)  ---------------------------------------


    POTLOK:  cpu time    0.0400: real time    0.0407
    SETDIJ:  cpu time    0.0040: real time    0.0019
     EDDAV:  cpu time    0.0560: real time    0.0565
       DOS:  cpu time    0.0000: real time    0.0001
    CHARGE:  cpu time    0.0160: real time    0.0164
    MIXING:  cpu time    0.0040: real time    0.0014
    --------------------------------------------
      LOOP:  cpu time    0.1200: real time    0.1231

 eigenvalue-minimisations  :    48
 total energy-change (2. order) :-0.2325246E-02  (-0.4958968E-04)
 number of electron      10.0000102 magnetization 
 augmentation part        0.6530384 magnetization 

 Broyden mixing:
  rms(total) = 0.14016E-02    rms(broyden)= 0.14015E-02
  rms(prec ) = 0.32676E-02
  weight for this iteration     100.00

 eigenvalues of (default mixing * dielectric matrix)
  average eigenvalue GAMMA=   1.8310
  3.4313  2.4009  0.7205  0.9993  1.7169  1.7169

 Free energy of the ion-electron system (eV)
  ---------------------------------------------------
  alpha Z        PSCENC =         0.85010715
  Ewald energy   TEWEN  =        48.90784304
  -Hartree energ DENC   =      -533.00681264
  -exchange      EXHF   =         0.00000000
  -V(xc)+E(xc)   XCENC  =        41.06367372
  PAW double counting   =       376.85199849     -379.95151531
  entropy T*S    EENTRO =        -0.00000000
  eigenvalues    EBANDS =      -148.90154950
  atomic energy  EATOM  =       579.39041991
  Solvation  Ediel_sol  =         0.00000000
  ---------------------------------------------------
  free energy    TOTEN  =       -14.79583515 eV

  energy without entropy =      -14.79583515  energy(sigma->0) =      -14.79583515


--------------------------------------------------------------------------------------------------------




----------------------------------------- Iteration    1(  12)  ---------------------------------------


    POTLOK:  cpu time    0.0400: real time    0.0406
    SETDIJ:  cpu time    0.0040: real time    0.0019
     EDDAV:  cpu time    0.0360: real time    0.0383
       DOS:  cpu time    0.0000: real time    0.0001
    CHARGE:  cpu time    0.0160: real time    0.0163
    MIXING:  cpu time    0.0000: real time    0.0015
    --------------------------------------------
      LOOP:  cpu time    0.1000: real time    0.1044

 eigenvalue-minimisations  :    32
 total energy-change (2. order) :-0.9826374E-03  (-0.1109058E-04)
 number of electron      10.0000102 magnetization 
 augmentation part        0.6529806 magnetization 

 Broyden mixing:
  rms(total) = 0.61420E-03    rms(broyden)= 0.61407E-03
  rms(prec ) = 0.14900E-02
  weight for this iteration     100.00

 eigenvalues of (default mixing * dielectric matrix)
  average eigenvalue GAMMA=   2.0609
  4.9841  2.6715  2.4073  1.6518  0.7204  0.9711  1.0203

 Free energy of the ion-electron system (eV)
  ---------------------------------------------------
  alpha Z        PSCENC =         0.85010715
  Ewald energy   TEWEN  =        48.90784304
  -Hartree energ DENC   =      -533.01494244
  -exchange      EXHF   =         0.00000000
  -V(xc)+E(xc)   XCENC  =        41.06197992
  PAW double counting   =       376.82192608     -379.92310724
  entropy T*S    EENTRO =        -0.00000000
  eigenvalues    EBANDS =      -148.89104421
  atomic energy  EATOM  =       579.39041991
  Solvation  Ediel_sol  =         0.00000000
  ---------------------------------------------------
  free energy    TOTEN  =       -14.79681779 eV

  energy without entropy =      -14.79681779  energy(sigma->0) =      -14.79681779


--------------------------------------------------------------------------------------------------------




----------------------------------------- Iteration    1(  13)  ---------------------------------------


    POTLOK:  cpu time    0.0400: real time    0.0402
    SETDIJ:  cpu time    0.0040: real time    0.0019
     EDDAV:  cpu time    0.0360: real time    0.0380
       DOS:  cpu time    0.0000: real time    0.0001
    CHARGE:  cpu time    0.0160: real time    0.0162
    MIXING:  cpu time    0.0000: real time    0.0016
    --------------------------------------------
      LOOP:  cpu time    0.1000: real time    0.1053

 eigenvalue-minimisations  :    32
 total energy-change (2. order) :-0.3738045E-03  (-0.5311683E-05)
 number of electron      10.0000102 magnetization 
 augmentation part        0.6530087 magnetization 

 Broyden mixing:
  rms(total) = 0.31078E-03    rms(broyden)= 0.31072E-03
  rms(prec ) = 0.64962E-03
  weight for this iteration     100.00

 eigenvalues of (default mixing * dielectric matrix)
  average eigenvalue GAMMA=   2.3024
  5.9366  3.2649  2.4578  2.3734  1.6613  0.7204  0.9823  1.0223

 Free energy of the ion-electron system (eV)
  ---------------------------------------------------
  alpha Z        PSCENC =         0.85010715
  Ewald energy   TEWEN  =        48.90784304
  -Hartree energ DENC   =      -533.02089686
  -exchange      EXHF   =         0.00000000
  -V(xc)+E(xc)   XCENC  =        41.06150843
  PAW double counting   =       376.80032368     -379.90255954
  entropy T*S    EENTRO =        -0.00000000
  eigenvalues    EBANDS =      -148.88393739
  atomic energy  EATOM  =       579.39041991
  Solvation  Ediel_sol  =         0.00000000
  ---------------------------------------------------
  free energy    TOTEN  =       -14.79719159 eV

  energy without entropy =      -14.79719159  energy(sigma->0) =      -14.79719159


--------------------------------------------------------------------------------------------------------




----------------------------------------- Iteration    1(  14)  ---------------------------------------


    POTLOK:  cpu time    0.0400: real time    0.0408
    SETDIJ:  cpu time    0.0000: real time    0.0019
     EDDAV:  cpu time    0.0400: real time    0.0380
       DOS:  cpu time    0.0000: real time    0.0001
    CHARGE:  cpu time    0.0160: real time    0.0163
    MIXING:  cpu time    0.0000: real time    0.0017
    --------------------------------------------
      LOOP:  cpu time    0.1000: real time    0.1039

 eigenvalue-minimisations  :    32
 total energy-change (2. order) :-0.1852702E-03  (-0.2513658E-05)
 number of electron      10.0000102 magnetization 
 augmentation part        0.6530201 magnetization 

 Broyden mixing:
  rms(total) = 0.14190E-03    rms(broyden)= 0.14180E-03
  rms(prec ) = 0.26066E-03
  weight for this iteration     100.00

 eigenvalues of (default mixing * dielectric matrix)
  average eigenvalue GAMMA=   2.2235
  6.0904  3.5751  2.4796  2.4387  1.6435  0.7204  0.9831  1.0405  1.0405

 Free energy of the ion-electron system (eV)
  ---------------------------------------------------
  alpha Z        PSCENC =         0.85010715
  Ewald energy   TEWEN  =        48.90784304
  -Hartree energ DENC   =      -533.01545824
  -exchange      EXHF   =         0.00000000
  -V(xc)+E(xc)   XCENC  =        41.06105869
  PAW double counting   =       376.84178726     -379.94353547
  entropy T*S    EENTRO =        -0.00000000
  eigenvalues    EBANDS =      -148.88959920
  atomic energy  EATOM  =       579.39041991
  Solvation  Ediel_sol  =         0.00000000
  ---------------------------------------------------
  free energy    TOTEN  =       -14.79737686 eV

  energy without entropy =      -14.79737686  energy(sigma->0) =      -14.79737686


--------------------------------------------------------------------------------------------------------




----------------------------------------- Iteration    1(  15)  ---------------------------------------


    POTLOK:  cpu time    0.0400: real time    0.0411
    SETDIJ:  cpu time    0.0040: real time    0.0019
     EDDAV:  cpu time    0.0360: real time    0.0380
       DOS:  cpu time    0.0000: real time    0.0001
    CHARGE:  cpu time    0.0160: real time    0.0163
    MIXING:  cpu time    0.0040: real time    0.0018
    --------------------------------------------
      LOOP:  cpu time    0.1040: real time    0.1052

 eigenvalue-minimisations  :    32
 total energy-change (2. order) :-0.1891932E-04  (-0.1348637E-06)
 number of electron      10.0000102 magnetization 
 augmentation part        0.6530075 magnetization 

 Broyden mixing:
  rms(total) = 0.54586E-04    rms(broyden)= 0.54554E-04
  rms(prec ) = 0.11213E-03
  weight for this iteration     100.00

 eigenvalues of (default mixing * dielectric matrix)
  average eigenvalue GAMMA=   2.3782
  6.4759  4.1766  2.9727  2.4541  2.2851  1.6398  0.7204  0.9916  1.0076  1.0586

 Free energy of the ion-electron system (eV)
  ---------------------------------------------------
  alpha Z        PSCENC =         0.85010715
  Ewald energy   TEWEN  =        48.90784304
  -Hartree energ DENC   =      -533.00847106
  -exchange      EXHF   =         0.00000000
  -V(xc)+E(xc)   XCENC  =        41.06071666
  PAW double counting   =       376.83325530     -379.93489866
  entropy T*S    EENTRO =        -0.00000000
  eigenvalues    EBANDS =      -148.89636811
  atomic energy  EATOM  =       579.39041991
  Solvation  Ediel_sol  =         0.00000000
  ---------------------------------------------------
  free energy    TOTEN  =       -14.79739578 eV

  energy without entropy =      -14.79739578  energy(sigma->0) =      -14.79739578


--------------------------------------------------------------------------------------------------------




----------------------------------------- Iteration    1(  16)  ---------------------------------------


    POTLOK:  cpu time    0.0400: real time    0.0411
    SETDIJ:  cpu time    0.0040: real time    0.0019
     EDDAV:  cpu time    0.0400: real time    0.0394
       DOS:  cpu time    0.0000: real time    0.0001
    CHARGE:  cpu time    0.0160: real time    0.0164
    MIXING:  cpu time    0.0000: real time    0.0018
    --------------------------------------------
      LOOP:  cpu time    0.1000: real time    0.1066

 eigenvalue-minimisations  :    32
 total energy-change (2. order) :-0.1093989E-04  (-0.1144150E-06)
 number of electron      10.0000102 magnetization 
 augmentation part        0.6530047 magnetization 

 Broyden mixing:
  rms(total) = 0.26251E-04    rms(broyden)= 0.26238E-04
  rms(prec ) = 0.43000E-04
  weight for this iteration     100.00

 eigenvalues of (default mixing * dielectric matrix)
  average eigenvalue GAMMA=   2.2441
  6.5172  4.1615  2.9639  2.4386  2.2879  1.6426  0.7204  0.9859  1.0331  1.0331
  0.9013

 Free energy of the ion-electron system (eV)
  ---------------------------------------------------
  alpha Z        PSCENC =         0.85010715
  Ewald energy   TEWEN  =        48.90784304
  -Hartree energ DENC   =      -533.00697529
  -exchange      EXHF   =         0.00000000
  -V(xc)+E(xc)   XCENC  =        41.06072884
  PAW double counting   =       376.83051712     -379.93217378
  entropy T*S    EENTRO =        -0.00000000
  eigenvalues    EBANDS =      -148.89787371
  atomic energy  EATOM  =       579.39041991
  Solvation  Ediel_sol  =         0.00000000
  ---------------------------------------------------
  free energy    TOTEN  =       -14.79740672 eV

  energy without entropy =      -14.79740672  energy(sigma->0) =      -14.79740672


--------------------------------------------------------------------------------------------------------




----------------------------------------- Iteration    1(  17)  ---------------------------------------


    POTLOK:  cpu time    0.0400: real time    0.0415
    SETDIJ:  cpu time    0.0040: real time    0.0019
     EDDAV:  cpu time    0.0760: real time    0.0760
       DOS:  cpu time    0.0000: real time    0.0001
    --------------------------------------------
      LOOP:  cpu time    0.1240: real time    0.1247

 eigenvalue-minimisations  :    64
 total energy-change (2. order) :-0.7289698E-06  (-0.2154088E-08)
 number of electron      10.0000102 magnetization 
 augmentation part        0.6530047 magnetization 

 Free energy of the ion-electron system (eV)
  ---------------------------------------------------
  alpha Z        PSCENC =         0.85010715
  Ewald energy   TEWEN  =        48.90784304
  -Hartree energ DENC   =      -533.00664732
  -exchange      EXHF   =         0.00000000
  -V(xc)+E(xc)   XCENC  =        41.06070984
  PAW double counting   =       376.83076882     -379.93242829
  entropy T*S    EENTRO =        -0.00000000
  eigenvalues    EBANDS =      -148.89818060
  atomic energy  EATOM  =       579.39041991
  Solvation  Ediel_sol  =         0.00000000
  ---------------------------------------------------
  free energy    TOTEN  =       -14.79740745 eV

  energy without entropy =      -14.79740745  energy(sigma->0) =      -14.79740745


--------------------------------------------------------------------------------------------------------




 average (electrostatic) potential at core
  the test charge radii are     0.7215  0.6991
  (the norm of the test charge is              1.0000)
       1 -83.2939       2 -61.3943
 
 
 
 E-fermi :  -7.7356     XC(G=0):  -1.1739     alpha+bet : -0.3423


 k-point     1 :       0.0000    0.0000    0.0000
  band No.  band energies     occupation 
      1     -28.9883      2.00000
      2     -13.7641      2.00000
      3     -11.4658      2.00000
      4     -11.4658      2.00000
      5      -8.7651      2.00000
      6      -1.8505      0.00000
      7      -1.8505      0.00000
      8      -0.2481      0.00000
      9       1.7031      0.00000
     10       1.8755      0.00000
     11       1.8755      0.00000
     12       1.9047      0.00000
     13       1.9432      0.00000
     14       2.5545      0.00000
     15       3.6910      0.00000
     16       4.1155      0.00000


--------------------------------------------------------------------------------------------------------


 soft charge-density along one line, spin component           1
         0         1         2         3         4         5         6         7         8         9
 total charge-density along one line
 
 pseudopotential strength for first ion, spin component:           1
 14.194  -0.592   0.000  -0.147   0.000  -0.000   0.008   0.000
 -0.592   0.133  -0.000   0.017  -0.000   0.000  -0.003   0.000
  0.000  -0.000 -11.002  -0.000  -0.000   0.414   0.000   0.000
 -0.147   0.017  -0.000 -11.146   0.000   0.000   0.433  -0.000
  0.000  -0.000  -0.000   0.000 -11.002   0.000  -0.000   0.414
 -0.000   0.000   0.414   0.000   0.000   0.088  -0.000  -0.000
  0.008  -0.003   0.000   0.433  -0.000  -0.000   0.084   0.000
  0.000   0.000   0.000  -0.000   0.414  -0.000   0.000   0.088
 total augmentation occupancy for first ion, spin component:           1
  1.945   0.177   0.000  -0.091   0.000  -0.000   0.089   0.000
  0.177   0.065   0.000   0.202  -0.000  -0.000   0.061   0.000
  0.000   0.000   1.461  -0.000   0.000   0.141   0.000   0.000
 -0.091   0.202  -0.000   1.784   0.000  -0.000   0.276   0.000
  0.000  -0.000   0.000   0.000   1.461   0.000  -0.000   0.141
 -0.000  -0.000   0.141  -0.000   0.000   0.014   0.000   0.000
  0.089   0.061   0.000   0.276  -0.000   0.000   0.065   0.000
  0.000   0.000   0.000   0.000   0.141   0.000   0.000   0.014


------------------------ aborting loop because EDIFF is reached ----------------------------------------


    CHARGE:  cpu time    0.0120: real time    0.0145
    FORLOC:  cpu time    0.0000: real time    0.0022
    FORNL :  cpu time    0.0040: real time    0.0026
    STRESS:  cpu time    0.0760: real time    0.0748
    FORHAR:  cpu time    0.0080: real time    0.0099
    MIXING:  cpu time    0.0040: real time    0.0021
    OFIELD:  cpu time    0.0000: real time    0.0001

  FORCE on cell =-STRESS in cart. coord.  units (eV):
  Direction    XX          YY          ZZ          XY          YZ          ZX
  --------------------------------------------------------------------------------------
  Alpha Z     0.85011     0.85011     0.85011
  Ewald     -86.00472   -86.00472   220.91723    -0.00000     0.00000     0.00000
  Hartree   140.53750   140.53750   251.93117    -0.00000    -0.00000    -0.00000
  E(xc)     -43.74039   -43.74039   -42.56091    -0.00000     0.00000     0.00000
  Local    -190.95485  -190.95485  -582.89100    -0.00000     0.00000     0.00000
  n-local   -18.44610   -18.44610   -29.75965    -0.00000     0.00000     0.00000
  augment     6.22562     6.22562     5.74331    -0.00000     0.00000     0.00000
  Kinetic   190.76222   190.76222   175.09539     0.00000    -0.00000    -0.00000
  Fock        0.00000     0.00000     0.00000     0.00000     0.00000     0.00000
  -------------------------------------------------------------------------------------
  Total      -0.77062    -0.77062    -0.67435     0.00000    -0.00000     0.00000
  in kB      -2.41146    -2.41146    -2.11021     0.00000    -0.00000     0.00000
  external pressure =       -2.31 kB  Pullay stress =        0.00 kB


 VOLUME and BASIS-vectors are now :
 -----------------------------------------------------------------------------
  energy-cutoff  :      400.00
  volume of cell :      512.00
      direct lattice vectors                 reciprocal lattice vectors
     8.000000000  0.000000000  0.000000000     0.125000000  0.000000000  0.000000000
     0.000000000  8.000000000  0.000000000     0.000000000  0.125000000  0.000000000
     0.000000000  0.000000000  8.000000000     0.000000000  0.000000000  0.125000000

  length of vectors
     8.000000000  8.000000000  8.000000000     0.125000000  0.125000000  0.125000000


 FORCES acting on ions
    electron-ion (+dipol)            ewald-force                    non-local-force                 convergence-correction
 -----------------------------------------------------------------------------------------------
   -.356E-14 0.171E-12 0.201E+03   -.124E-15 -.155E-15 -.261E+03   -.165E-23 -.248E-23 0.595E+02   -.284E-13 -.145E-13 -.684E-03
   -.272E-15 0.426E-13 -.233E+03   0.127E-15 0.121E-15 0.261E+03   0.000E+00 0.000E+00 -.281E+02   -.171E-14 -.257E-14 -.110E-05
 -----------------------------------------------------------------------------------------------
   -.383E-14 0.213E-12 -.315E+02   0.264E-17 -.340E-16 0.000E+00   -.165E-23 -.248E-23 0.315E+02   -.301E-13 -.170E-13 -.685E-03
 
 
 POSITION                                       TOTAL-FORCE (eV/Angst)
 -----------------------------------------------------------------------------------
      0.00000      0.00000      0.00000         0.000000     -0.000000     -0.063119
      0.00000      0.00000      1.14300         0.000000      0.000000      0.063119
 -----------------------------------------------------------------------------------
    total drift:                               -0.000000      0.000000     -0.003811


--------------------------------------------------------------------------------------------------------



  FREE ENERGIE OF THE ION-ELECTRON SYSTEM (eV)
  ---------------------------------------------------
  free  energy   TOTEN  =       -14.79740745 eV

  energy  without entropy=      -14.79740745  energy(sigma->0) =      -14.79740745
 


--------------------------------------------------------------------------------------------------------


    POTLOK:  cpu time    0.0440: real time    0.0465


--------------------------------------------------------------------------------------------------------


 Finite differences:
   Step               POTIM =   2.000000000000000E-002
   Degrees of freedom DOF   =            2
  LATTYP: Found a simple cubic cell.
 ALAT       =     8.0000000000
  
  Lattice vectors:
  
 A1 = (   8.0000000000,   0.0000000000,   0.0000000000)
 A2 = (   0.0000000000,   8.0000000000,   0.0000000000)
 A3 = (   0.0000000000,   0.0000000000,   8.0000000000)


Analysis of symmetry for initial positions (statically):
=====================================================================
 Subroutine PRICEL returns:
 Original cell was already a primitive cell.
 

 Routine SETGRP: Setting up the symmetry group for a 
 simple cubic supercell.


 Subroutine GETGRP returns: Found  8 space group operations
 (whereof  8 operations were pure point group operations)
 out of a pool of 48 trial point group operations.


The static configuration has the point symmetry C_4v.


Analysis of symmetry for dynamics (positions and initial velocities):
=====================================================================
 Subroutine PRICEL returns:
 Original cell was already a primitive cell.
 

 Routine SETGRP: Setting up the symmetry group for a 
 simple cubic supercell.


 Subroutine GETGRP returns: Found  8 space group operations
 (whereof  8 operations were pure point group operations)
 out of a pool of 48 trial point group operations.


The dynamic configuration has the point symmetry C_4v.


Analysis of constrained symmetry for selective dynamics:
=====================================================================
 Subroutine PRICEL returns:
 Original cell was already a primitive cell.
 

 Routine SETGRP: Setting up the symmetry group for a 
 simple cubic supercell.


 Subroutine GETGRP returns: Found  8 space group operations
 (whereof  8 operations were pure point group operations)
 out of a pool of 48 trial point group operations.


The constrained configuration has the point symmetry C_4v.
 
 KPOINTS: Gamma-point only                        
  k-points in reciprocal lattice
Space group operators:
 irot       det(A)        alpha          n_x          n_y          n_z        tau_x        tau_y        tau_z
    1     1.000000     0.000000     1.000000     0.000000     0.000000     0.000000     0.000000     0.000000
    2     1.000000    90.000000     0.000000     0.000000    -1.000000     0.000000     0.000000     0.000000
    3     1.000000   180.000000     0.000000     0.000000     1.000000     0.000000     0.000000     0.000000
    4     1.000000    90.000000     0.000000     0.000000     1.000000     0.000000     0.000000     0.000000
    5    -1.000000   180.000000     1.000000     0.000000     0.000000     0.000000     0.000000     0.000000
    6    -1.000000   180.000000     0.707107     0.707107     0.000000     0.000000     0.000000     0.000000
    7    -1.000000   180.000000     0.000000     1.000000     0.000000     0.000000     0.000000     0.000000
    8    -1.000000   180.000000     0.707107    -0.707107     0.000000     0.000000     0.000000     0.000000
    WAVPRE:  cpu time    0.0040: real time    0.0056
 FEWALD executed in parallel
    FEWALD:  cpu time    0.0000: real time    0.0004
    ORTHCH:  cpu time    0.0040: real time    0.0033
     LOOP+:  cpu time    3.7082: real time    3.8258


----------------------------------------- Iteration    2(   1)  ---------------------------------------


    POTLOK:  cpu time    0.0440: real time    0.0421
    SETDIJ:  cpu time    0.0000: real time    0.0019
     EDDAV:  cpu time    0.0400: real time    0.0391
       DOS:  cpu time    0.0000: real time    0.0001
    CHARGE:  cpu time    0.0160: real time    0.0165
    MIXING:  cpu time    0.0040: real time    0.0010
    --------------------------------------------
      LOOP:  cpu time    0.1040: real time    0.1040

 eigenvalue-minimisations  :    32
 total energy-change (2. order) : 0.2455119E-01  (-0.2364968E+00)
 number of electron      10.0000068 magnetization 
 augmentation part        0.6632351 magnetization 

 Broyden mixing:
  rms(total) = 0.37256E-01    rms(broyden)= 0.37018E-01
  rms(prec ) = 0.48164E-01
  weight for this iteration     100.00

 Free energy of the ion-electron system (eV)
  ---------------------------------------------------
  alpha Z        PSCENC =         0.85010715
  Ewald energy   TEWEN  =        54.22475701
  -Hartree energ DENC   =      -536.10964940
  -exchange      EXHF   =         0.00000000
  -V(xc)+E(xc)   XCENC  =        41.15701106
  PAW double counting   =       376.83115603     -379.93283649
  entropy T*S    EENTRO =        -0.00000000
  eigenvalues    EBANDS =      -151.18382080
  atomic energy  EATOM  =       579.39041991
  Solvation  Ediel_sol  =         0.00000000
  ---------------------------------------------------
  free energy    TOTEN  =       -14.77285554 eV

  energy without entropy =      -14.77285554  energy(sigma->0) =      -14.77285554


--------------------------------------------------------------------------------------------------------




----------------------------------------- Iteration    2(   2)  ---------------------------------------


    POTLOK:  cpu time    0.0440: real time    0.0430
    SETDIJ:  cpu time    0.0000: real time    0.0019
     EDDAV:  cpu time    0.0760: real time    0.0764
       DOS:  cpu time    0.0040: real time    0.0001
    CHARGE:  cpu time    0.0160: real time    0.0164
    MIXING:  cpu time    0.0000: real time    0.0010
    --------------------------------------------
      LOOP:  cpu time    0.1400: real time    0.1462

 eigenvalue-minimisations  :    64
 total energy-change (2. order) :-0.6618964E-04  (-0.3216834E-02)
 number of electron      10.0000068 magnetization 
 augmentation part        0.6646032 magnetization 

 Broyden mixing:
  rms(total) = 0.22439E-01    rms(broyden)= 0.22420E-01
  rms(prec ) = 0.28771E-01
  weight for this iteration     100.00

 eigenvalues of (default mixing * dielectric matrix)
  average eigenvalue GAMMA=   1.6826
  1.6826

 Free energy of the ion-electron system (eV)
  ---------------------------------------------------
  alpha Z        PSCENC =         0.85010715
  Ewald energy   TEWEN  =        54.22475701
  -Hartree energ DENC   =      -536.67177744
  -exchange      EXHF   =         0.00000000
  -V(xc)+E(xc)   XCENC  =        41.18954426
  PAW double counting   =       379.68130578     -382.79566790
  entropy T*S    EENTRO =        -0.00000000
  eigenvalues    EBANDS =      -150.64161050
  atomic energy  EATOM  =       579.39041991
  Solvation  Ediel_sol  =         0.00000000
  ---------------------------------------------------
  free energy    TOTEN  =       -14.77292173 eV

  energy without entropy =      -14.77292173  energy(sigma->0) =      -14.77292173


--------------------------------------------------------------------------------------------------------




----------------------------------------- Iteration    2(   3)  ---------------------------------------


    POTLOK:  cpu time    0.0440: real time    0.0427
    SETDIJ:  cpu time    0.0040: real time    0.0019
     EDDAV:  cpu time    0.0400: real time    0.0383
       DOS:  cpu time    0.0000: real time    0.0001
    CHARGE:  cpu time    0.0160: real time    0.0164
    MIXING:  cpu time    0.0000: real time    0.0011
    --------------------------------------------
      LOOP:  cpu time    0.1040: real time    0.1076

 eigenvalue-minimisations  :    32
 total energy-change (2. order) : 0.1009038E-02  (-0.4973575E-03)
 number of electron      10.0000068 magnetization 
 augmentation part        0.6641832 magnetization 

 Broyden mixing:
  rms(total) = 0.50625E-02    rms(broyden)= 0.50534E-02
  rms(prec ) = 0.64127E-02
  weight for this iteration     100.00

 eigenvalues of (default mixing * dielectric matrix)
  average eigenvalue GAMMA=   1.4731
  1.0590  1.8871

 Free energy of the ion-electron system (eV)
  ---------------------------------------------------
  alpha Z        PSCENC =         0.85010715
  Ewald energy   TEWEN  =        54.22475701
  -Hartree energ DENC   =      -537.28449588
  -exchange      EXHF   =         0.00000000
  -V(xc)+E(xc)   XCENC  =        41.22337881
  PAW double counting   =       382.81249560     -385.94583434
  entropy T*S    EENTRO =        -0.00000000
  eigenvalues    EBANDS =      -150.04274094
  atomic energy  EATOM  =       579.39041991
  Solvation  Ediel_sol  =         0.00000000
  ---------------------------------------------------
  free energy    TOTEN  =       -14.77191269 eV

  energy without entropy =      -14.77191269  energy(sigma->0) =      -14.77191269


--------------------------------------------------------------------------------------------------------




----------------------------------------- Iteration    2(   4)  ---------------------------------------


    POTLOK:  cpu time    0.0440: real time    0.0424
    SETDIJ:  cpu time    0.0000: real time    0.0019
     EDDAV:  cpu time    0.0560: real time    0.0547
       DOS:  cpu time    0.0000: real time    0.0001
    CHARGE:  cpu time    0.0200: real time    0.0164
    MIXING:  cpu time    0.0000: real time    0.0012
    --------------------------------------------
      LOOP:  cpu time    0.1200: real time    0.1226

 eigenvalue-minimisations  :    48
 total energy-change (2. order) :-0.1335134E-04  (-0.2037364E-04)
 number of electron      10.0000068 magnetization 
 augmentation part        0.6637720 magnetization 

 Broyden mixing:
  rms(total) = 0.30676E-02    rms(broyden)= 0.30660E-02
  rms(prec ) = 0.38418E-02
  weight for this iteration     100.00

 eigenvalues of (default mixing * dielectric matrix)
  average eigenvalue GAMMA=   1.4134
  2.0450  0.9812  1.2140

 Free energy of the ion-electron system (eV)
  ---------------------------------------------------
  alpha Z        PSCENC =         0.85010715
  Ewald energy   TEWEN  =        54.22475701
  -Hartree energ DENC   =      -537.26164341
  -exchange      EXHF   =         0.00000000
  -V(xc)+E(xc)   XCENC  =        41.22186368
  PAW double counting   =       383.12227201     -386.25628531
  entropy T*S    EENTRO =        -0.00000000
  eigenvalues    EBANDS =      -150.06341707
  atomic energy  EATOM  =       579.39041991
  Solvation  Ediel_sol  =         0.00000000
  ---------------------------------------------------
  free energy    TOTEN  =       -14.77192604 eV

  energy without entropy =      -14.77192604  energy(sigma->0) =      -14.77192604


--------------------------------------------------------------------------------------------------------




----------------------------------------- Iteration    2(   5)  ---------------------------------------


    POTLOK:  cpu time    0.0440: real time    0.0419
    SETDIJ:  cpu time    0.0000: real time    0.0019
     EDDAV:  cpu time    0.0760: real time    0.0752
       DOS:  cpu time    0.0000: real time    0.0001
    CHARGE:  cpu time    0.0160: real time    0.0164
    MIXING:  cpu time    0.0000: real time    0.0012
    --------------------------------------------
      LOOP:  cpu time    0.1360: real time    0.1459

 eigenvalue-minimisations  :    64
 total energy-change (2. order) :-0.7986122E-05  (-0.3098140E-05)
 number of electron      10.0000068 magnetization 
 augmentation part        0.6639553 magnetization 

 Broyden mixing:
  rms(total) = 0.13318E-02    rms(broyden)= 0.13314E-02
  rms(prec ) = 0.18277E-02
  weight for this iteration     100.00

 eigenvalues of (default mixing * dielectric matrix)
  average eigenvalue GAMMA=   1.4821
  2.5406  1.6259  1.0310  0.7308

 Free energy of the ion-electron system (eV)
  ---------------------------------------------------
  alpha Z        PSCENC =         0.85010715
  Ewald energy   TEWEN  =        54.22475701
  -Hartree energ DENC   =      -537.24287527
  -exchange      EXHF   =         0.00000000
  -V(xc)+E(xc)   XCENC  =        41.22079977
  PAW double counting   =       383.39437741     -386.52885113
  entropy T*S    EENTRO =        -0.00000000
  eigenvalues    EBANDS =      -150.08066888
  atomic energy  EATOM  =       579.39041991
  Solvation  Ediel_sol  =         0.00000000
  ---------------------------------------------------
  free energy    TOTEN  =       -14.77193402 eV

  energy without entropy =      -14.77193402  energy(sigma->0) =      -14.77193402


--------------------------------------------------------------------------------------------------------




----------------------------------------- Iteration    2(   6)  ---------------------------------------


    POTLOK:  cpu time    0.0400: real time    0.0417
    SETDIJ:  cpu time    0.0040: real time    0.0019
     EDDAV:  cpu time    0.0360: real time    0.0383
       DOS:  cpu time    0.0000: real time    0.0001
    CHARGE:  cpu time    0.0200: real time    0.0164
    MIXING:  cpu time    0.0000: real time    0.0013
    --------------------------------------------
      LOOP:  cpu time    0.1040: real time    0.1064

 eigenvalue-minimisations  :    32
 total energy-change (2. order) :-0.1989762E-04  (-0.4512631E-06)
 number of electron      10.0000068 magnetization 
 augmentation part        0.6639358 magnetization 

 Broyden mixing:
  rms(total) = 0.25669E-03    rms(broyden)= 0.25663E-03
  rms(prec ) = 0.64272E-03
  weight for this iteration     100.00

 eigenvalues of (default mixing * dielectric matrix)
  average eigenvalue GAMMA=   1.5171
  2.4449  1.8546  1.4954  1.0172  0.7733

 Free energy of the ion-electron system (eV)
  ---------------------------------------------------
  alpha Z        PSCENC =         0.85010715
  Ewald energy   TEWEN  =        54.22475701
  -Hartree energ DENC   =      -537.23021488
  -exchange      EXHF   =         0.00000000
  -V(xc)+E(xc)   XCENC  =        41.22006063
  PAW double counting   =       383.61221931     -386.74697222
  entropy T*S    EENTRO =        -0.00000000
  eigenvalues    EBANDS =      -150.09233083
  atomic energy  EATOM  =       579.39041991
  Solvation  Ediel_sol  =         0.00000000
  ---------------------------------------------------
  free energy    TOTEN  =       -14.77195392 eV

  energy without entropy =      -14.77195392  energy(sigma->0) =      -14.77195392


--------------------------------------------------------------------------------------------------------




----------------------------------------- Iteration    2(   7)  ---------------------------------------


    POTLOK:  cpu time    0.0440: real time    0.0419
    SETDIJ:  cpu time    0.0040: real time    0.0019
     EDDAV:  cpu time    0.0400: real time    0.0385
       DOS:  cpu time    0.0000: real time    0.0001
    CHARGE:  cpu time    0.0160: real time    0.0163
    MIXING:  cpu time    0.0000: real time    0.0014
    --------------------------------------------
      LOOP:  cpu time    0.1040: real time    0.1049

 eigenvalue-minimisations  :    32
 total energy-change (2. order) :-0.3039633E-04  (-0.2652398E-06)
 number of electron      10.0000068 magnetization 
 augmentation part        0.6638982 magnetization 

 Broyden mixing:
  rms(total) = 0.17435E-03    rms(broyden)= 0.17421E-03
  rms(prec ) = 0.40972E-03
  weight for this iteration     100.00

 eigenvalues of (default mixing * dielectric matrix)
  average eigenvalue GAMMA=   1.5594
  2.5117  2.5117  1.5747  1.0630  0.8618  0.8336

 Free energy of the ion-electron system (eV)
  ---------------------------------------------------
  alpha Z        PSCENC =         0.85010715
  Ewald energy   TEWEN  =        54.22475701
  -Hartree energ DENC   =      -537.23594129
  -exchange      EXHF   =         0.00000000
  -V(xc)+E(xc)   XCENC  =        41.22045307
  PAW double counting   =       383.60417633     -386.73881091
  entropy T*S    EENTRO =        -0.00000000
  eigenvalues    EBANDS =      -150.08714558
  atomic energy  EATOM  =       579.39041991
  Solvation  Ediel_sol  =         0.00000000
  ---------------------------------------------------
  free energy    TOTEN  =       -14.77198432 eV

  energy without entropy =      -14.77198432  energy(sigma->0) =      -14.77198432


--------------------------------------------------------------------------------------------------------




----------------------------------------- Iteration    2(   8)  ---------------------------------------


    POTLOK:  cpu time    0.0400: real time    0.0419
    SETDIJ:  cpu time    0.0040: real time    0.0019
     EDDAV:  cpu time    0.0360: real time    0.0383
       DOS:  cpu time    0.0000: real time    0.0001
    CHARGE:  cpu time    0.0160: real time    0.0164
    MIXING:  cpu time    0.0040: real time    0.0015
    --------------------------------------------
      LOOP:  cpu time    0.1040: real time    0.1078

 eigenvalue-minimisations  :    32
 total energy-change (2. order) :-0.1999478E-04  (-0.1810277E-06)
 number of electron      10.0000068 magnetization 
 augmentation part        0.6639278 magnetization 

 Broyden mixing:
  rms(total) = 0.76890E-04    rms(broyden)= 0.76791E-04
  rms(prec ) = 0.16637E-03
  weight for this iteration     100.00

 eigenvalues of (default mixing * dielectric matrix)
  average eigenvalue GAMMA=   1.8488
  4.1428  2.3924  2.0404  1.6318  1.0195  0.8942  0.8201

 Free energy of the ion-electron system (eV)
  ---------------------------------------------------
  alpha Z        PSCENC =         0.85010715
  Ewald energy   TEWEN  =        54.22475701
  -Hartree energ DENC   =      -537.23698351
  -exchange      EXHF   =         0.00000000
  -V(xc)+E(xc)   XCENC  =        41.22050109
  PAW double counting   =       383.60612505     -386.74070063
  entropy T*S    EENTRO =        -0.00000000
  eigenvalues    EBANDS =      -150.08623038
  atomic energy  EATOM  =       579.39041991
  Solvation  Ediel_sol  =         0.00000000
  ---------------------------------------------------
  free energy    TOTEN  =       -14.77200431 eV

  energy without entropy =      -14.77200431  energy(sigma->0) =      -14.77200431


--------------------------------------------------------------------------------------------------------




----------------------------------------- Iteration    2(   9)  ---------------------------------------


    POTLOK:  cpu time    0.0440: real time    0.0422
    SETDIJ:  cpu time    0.0000: real time    0.0019
     EDDAV:  cpu time    0.0360: real time    0.0383
       DOS:  cpu time    0.0000: real time    0.0001
    CHARGE:  cpu time    0.0160: real time    0.0164
    MIXING:  cpu time    0.0000: real time    0.0015
    --------------------------------------------
      LOOP:  cpu time    0.0960: real time    0.1064

 eigenvalue-minimisations  :    32
 total energy-change (2. order) :-0.1311803E-04  (-0.8532613E-07)
 number of electron      10.0000068 magnetization 
 augmentation part        0.6639292 magnetization 

 Broyden mixing:
  rms(total) = 0.32766E-04    rms(broyden)= 0.32742E-04
  rms(prec ) = 0.66467E-04
  weight for this iteration     100.00

 eigenvalues of (default mixing * dielectric matrix)
  average eigenvalue GAMMA=   1.9678
  5.2618  2.5811  2.2365  1.6128  1.2626  0.8050  0.9800  1.0023

 Free energy of the ion-electron system (eV)
  ---------------------------------------------------
  alpha Z        PSCENC =         0.85010715
  Ewald energy   TEWEN  =        54.22475701
  -Hartree energ DENC   =      -537.23930246
  -exchange      EXHF   =         0.00000000
  -V(xc)+E(xc)   XCENC  =        41.22056393
  PAW double counting   =       383.60505933     -386.73968410
  entropy T*S    EENTRO =        -0.00000000
  eigenvalues    EBANDS =      -150.08393819
[...]
  average eigenvalue GAMMA=   1.9868
  4.7406  2.6247  2.1516  1.5818  0.7561  1.0265  1.0265

 Free energy of the ion-electron system (eV)
  ---------------------------------------------------
  alpha Z        PSCENC =         0.85010715
  Ewald energy   TEWEN  =        54.22475701
  -Hartree energ DENC   =      -537.23486128
  -exchange      EXHF   =         0.00000000
  -V(xc)+E(xc)   XCENC  =        41.22040504
  PAW double counting   =       383.58961135     -386.72405475
  entropy T*S    EENTRO =        -0.00000000
  eigenvalues    EBANDS =      -150.08854357
  atomic energy  EATOM  =       579.39041991
  Solvation  Ediel_sol  =         0.00000000
  ---------------------------------------------------
  free energy    TOTEN  =       -14.77215915 eV

  energy without entropy =      -14.77215915  energy(sigma->0) =      -14.77215915


--------------------------------------------------------------------------------------------------------




----------------------------------------- Iteration    5(   9)  ---------------------------------------


    POTLOK:  cpu time    0.0400: real time    0.0417
    SETDIJ:  cpu time    0.0040: real time    0.0019
     EDDAV:  cpu time    0.0360: real time    0.0382
       DOS:  cpu time    0.0000: real time    0.0001
    CHARGE:  cpu time    0.0160: real time    0.0164
    MIXING:  cpu time    0.0040: real time    0.0015
    --------------------------------------------
      LOOP:  cpu time    0.1040: real time    0.1045

 eigenvalue-minimisations  :    32
 total energy-change (2. order) :-0.4662531E-04  (-0.5067739E-06)
 number of electron      10.0000101 magnetization 
 augmentation part        0.6639322 magnetization 

 Broyden mixing:
  rms(total) = 0.64087E-04    rms(broyden)= 0.64007E-04
  rms(prec ) = 0.11989E-03
  weight for this iteration     100.00

 eigenvalues of (default mixing * dielectric matrix)
  average eigenvalue GAMMA=   1.9641
  5.0344  2.6174  2.3597  1.5831  0.7559  1.0247  1.0247  1.3130

 Free energy of the ion-electron system (eV)
  ---------------------------------------------------
  alpha Z        PSCENC =         0.85010715
  Ewald energy   TEWEN  =        54.22475701
  -Hartree energ DENC   =      -537.24189002
  -exchange      EXHF   =         0.00000000
  -V(xc)+E(xc)   XCENC  =        41.22066854
  PAW double counting   =       383.60155348     -386.73626813
  entropy T*S    EENTRO =        -0.00000000
  eigenvalues    EBANDS =      -150.08155371
  atomic energy  EATOM  =       579.39041991
  Solvation  Ediel_sol  =         0.00000000
  ---------------------------------------------------
  free energy    TOTEN  =       -14.77220577 eV

  energy without entropy =      -14.77220577  energy(sigma->0) =      -14.77220577


--------------------------------------------------------------------------------------------------------




----------------------------------------- Iteration    5(  10)  ---------------------------------------


    POTLOK:  cpu time    0.0440: real time    0.0422
    SETDIJ:  cpu time    0.0000: real time    0.0019
     EDDAV:  cpu time    0.0400: real time    0.0382
       DOS:  cpu time    0.0000: real time    0.0001
    CHARGE:  cpu time    0.0160: real time    0.0164
    MIXING:  cpu time    0.0040: real time    0.0016
    --------------------------------------------
      LOOP:  cpu time    0.1040: real time    0.1062

 eigenvalue-minimisations  :    32
 total energy-change (2. order) :-0.1041812E-04  (-0.5989398E-07)
 number of electron      10.0000101 magnetization 
 augmentation part        0.6639380 magnetization 

 Broyden mixing:
  rms(total) = 0.40608E-04    rms(broyden)= 0.40580E-04
  rms(prec ) = 0.63299E-04
  weight for this iteration     100.00

 eigenvalues of (default mixing * dielectric matrix)
  average eigenvalue GAMMA=   2.1202
  6.0231  3.0548  2.5545  2.0771  1.5936  0.7557  1.0301  1.0301  0.9630

 Free energy of the ion-electron system (eV)
  ---------------------------------------------------
  alpha Z        PSCENC =         0.85010715
  Ewald energy   TEWEN  =        54.22475701
  -Hartree energ DENC   =      -537.23993858
  -exchange      EXHF   =         0.00000000
  -V(xc)+E(xc)   XCENC  =        41.22055555
  PAW double counting   =       383.60438004     -386.73913641
  entropy T*S    EENTRO =        -0.00000000
  eigenvalues    EBANDS =      -150.08336085
  atomic energy  EATOM  =       579.39041991
  Solvation  Ediel_sol  =         0.00000000
  ---------------------------------------------------
  free energy    TOTEN  =       -14.77221619 eV

  energy without entropy =      -14.77221619  energy(sigma->0) =      -14.77221619


--------------------------------------------------------------------------------------------------------




----------------------------------------- Iteration    5(  11)  ---------------------------------------


    POTLOK:  cpu time    0.0440: real time    0.0425
    SETDIJ:  cpu time    0.0000: real time    0.0019
     EDDAV:  cpu time    0.0400: real time    0.0382
       DOS:  cpu time    0.0000: real time    0.0001
    CHARGE:  cpu time    0.0160: real time    0.0164
    MIXING:  cpu time    0.0000: real time    0.0018
    --------------------------------------------
      LOOP:  cpu time    0.1000: real time    0.1067

 eigenvalue-minimisations  :    32
 total energy-change (2. order) :-0.3495550E-05  (-0.1782090E-07)
 number of electron      10.0000101 magnetization 
 augmentation part        0.6639363 magnetization 

 Broyden mixing:
  rms(total) = 0.15535E-04    rms(broyden)= 0.15530E-04
  rms(prec ) = 0.24050E-04
  weight for this iteration     100.00

 eigenvalues of (default mixing * dielectric matrix)
  average eigenvalue GAMMA=   2.2250
  6.2593  3.6321  2.5779  2.2855  2.0855  1.5749  0.7557  0.9916  1.0435  1.0435

 Free energy of the ion-electron system (eV)
  ---------------------------------------------------
  alpha Z        PSCENC =         0.85010715
  Ewald energy   TEWEN  =        54.22475701
  -Hartree energ DENC   =      -537.23936918
  -exchange      EXHF   =         0.00000000
  -V(xc)+E(xc)   XCENC  =        41.22053121
  PAW double counting   =       383.60434961     -386.73909495
  entropy T*S    EENTRO =        -0.00000000
  eigenvalues    EBANDS =      -150.08392043
  atomic energy  EATOM  =       579.39041991
  Solvation  Ediel_sol  =         0.00000000
  ---------------------------------------------------
  free energy    TOTEN  =       -14.77221969 eV

  energy without entropy =      -14.77221969  energy(sigma->0) =      -14.77221969


--------------------------------------------------------------------------------------------------------




----------------------------------------- Iteration    5(  12)  ---------------------------------------


    POTLOK:  cpu time    0.0440: real time    0.0429
    SETDIJ:  cpu time    0.0000: real time    0.0019
     EDDAV:  cpu time    0.0400: real time    0.0385
       DOS:  cpu time    0.0000: real time    0.0001
    --------------------------------------------
      LOOP:  cpu time    0.0880: real time    0.0897

 eigenvalue-minimisations  :    32
 total energy-change (2. order) :-0.9179108E-06  (-0.3943605E-08)
 number of electron      10.0000101 magnetization 
 augmentation part        0.6639363 magnetization 

 Free energy of the ion-electron system (eV)
  ---------------------------------------------------
  alpha Z        PSCENC =         0.85010715
  Ewald energy   TEWEN  =        54.22475701
  -Hartree energ DENC   =      -537.23898276
  -exchange      EXHF   =         0.00000000
  -V(xc)+E(xc)   XCENC  =        41.22051486
  PAW double counting   =       383.60355631     -386.73827383
  entropy T*S    EENTRO =        -0.00000000
  eigenvalues    EBANDS =      -150.08431925
  atomic energy  EATOM  =       579.39041991
  Solvation  Ediel_sol  =         0.00000000
  ---------------------------------------------------
  free energy    TOTEN  =       -14.77222060 eV

  energy without entropy =      -14.77222060  energy(sigma->0) =      -14.77222060


--------------------------------------------------------------------------------------------------------




 average (electrostatic) potential at core
  the test charge radii are     0.7215  0.6991
  (the norm of the test charge is              1.0000)
       1 -83.3868       2 -61.3150
 
 
 
 E-fermi :  -7.7094     XC(G=0):  -1.1868     alpha+bet : -0.3423


 k-point     1 :       0.0000    0.0000    0.0000
  band No.  band energies     occupation 
      1     -29.2852      2.00000
      2     -13.7496      2.00000
      3     -11.6431      2.00000
      4     -11.6431      2.00000
      5      -8.7212      2.00000
      6      -1.6577      0.00000
      7      -1.6577      0.00000
      8      -0.2576      0.00000
      9       1.7019      0.00000
     10       1.8678      0.00000
     11       1.8678      0.00000
     12       1.8943      0.00000
     13       1.9371      0.00000
     14       2.5167      0.00000
     15       3.6909      0.00000
     16       4.1351      0.00000


--------------------------------------------------------------------------------------------------------


 soft charge-density along one line, spin component           1
         0         1         2         3         4         5         6         7         8         9
 total charge-density along one line
 
 pseudopotential strength for first ion, spin component:           1
 14.206  -0.593  -0.000  -0.156   0.000   0.000   0.009  -0.000
 -0.593   0.133   0.000   0.017  -0.000  -0.000  -0.003  -0.000
 -0.000   0.000 -11.011   0.000   0.000   0.415  -0.000  -0.000
 -0.156   0.017   0.000 -11.173   0.000  -0.000   0.436  -0.000
  0.000  -0.000   0.000   0.000 -11.011  -0.000  -0.000   0.415
  0.000  -0.000   0.415  -0.000  -0.000   0.088   0.000   0.000
  0.009  -0.003  -0.000   0.436  -0.000   0.000   0.083   0.000
 -0.000  -0.000  -0.000  -0.000   0.415   0.000   0.000   0.088
 total augmentation occupancy for first ion, spin component:           1
  1.947   0.185   0.000  -0.080   0.000   0.000   0.093   0.000
  0.185   0.068   0.000   0.207  -0.000   0.000   0.063   0.000
  0.000   0.000   1.465   0.000   0.000   0.145   0.000   0.000
 -0.080   0.207   0.000   1.812   0.000   0.000   0.278   0.000
  0.000  -0.000   0.000   0.000   1.465   0.000   0.000   0.145
  0.000   0.000   0.145  -0.000   0.000   0.014  -0.000   0.000
  0.093   0.063   0.000   0.278   0.000  -0.000   0.065   0.000
  0.000   0.000   0.000   0.000   0.145   0.000   0.000   0.014


------------------------ aborting loop because EDIFF is reached ----------------------------------------


    CHARGE:  cpu time    0.0160: real time    0.0150
    FORLOC:  cpu time    0.0000: real time    0.0022
    FORNL :  cpu time    0.0040: real time    0.0026
    STRESS:  cpu time    0.0760: real time    0.0764
    FORHAR:  cpu time    0.0120: real time    0.0099
    MIXING:  cpu time    0.0000: real time    0.0019
    OFIELD:  cpu time    0.0000: real time    0.0001

  FORCE on cell =-STRESS in cart. coord.  units (eV):
  Direction    XX          YY          ZZ          XY          YZ          ZX
  --------------------------------------------------------------------------------------
  Alpha Z     0.85011     0.85011     0.85011
  Ewald     -85.97602   -85.97602   226.17674     0.00000     0.00000    -0.00000
  Hartree   142.16484   142.16484   252.90890    -0.00000    -0.00000    -0.00000
  E(xc)     -43.90580   -43.90580   -42.71959     0.00000    -0.00000    -0.00000
  Local    -193.06156  -193.06156  -586.72056     0.00000     0.00000    -0.00000
  n-local   -18.71316   -18.71316   -30.32593     0.00000     0.00000     0.00000
  augment     6.25893     6.25893     5.62361     0.00000    -0.00000     0.00000
  Kinetic   191.61341   191.61341   176.27017    -0.00000    -0.00000    -0.00000
  Fock        0.00000     0.00000     0.00000     0.00000     0.00000     0.00000
  -------------------------------------------------------------------------------------
  Total      -0.76926    -0.76926     2.06346     0.00000     0.00000    -0.00000
  in kB      -2.40720    -2.40720     6.45708     0.00000     0.00000    -0.00000
  external pressure =        0.55 kB  Pullay stress =        0.00 kB


 VOLUME and BASIS-vectors are now :
 -----------------------------------------------------------------------------
  energy-cutoff  :      400.00
  volume of cell :      512.00
      direct lattice vectors                 reciprocal lattice vectors
     8.000000000  0.000000000  0.000000000     0.125000000  0.000000000  0.000000000
     0.000000000  8.000000000  0.000000000     0.000000000  0.125000000  0.000000000
     0.000000000  0.000000000  8.000000000     0.000000000  0.000000000  0.125000000

  length of vectors
     8.000000000  8.000000000  8.000000000     0.125000000  0.125000000  0.125000000


 FORCES acting on ions
    electron-ion (+dipol)            ewald-force                    non-local-force                 convergence-correction
 -----------------------------------------------------------------------------------------------
   0.882E-15 0.142E-13 0.207E+03   -.386E-16 -.794E-16 -.271E+03   0.000E+00 0.000E+00 0.610E+02   -.210E-13 -.287E-13 -.115E-03
   0.263E-14 -.426E-13 -.240E+03   0.413E-16 0.453E-16 0.271E+03   -.101E-27 0.000E+00 -.281E+02   -.122E-14 -.391E-14 -.813E-04
 -----------------------------------------------------------------------------------------------
   0.351E-14 -.284E-13 -.329E+02   0.264E-17 -.340E-16 0.000E+00   -.101E-27 0.000E+00 0.329E+02   -.222E-13 -.326E-13 -.196E-03
 
 
 POSITION                                       TOTAL-FORCE (eV/Angst)
 -----------------------------------------------------------------------------------
      0.00000      0.00000      0.00000         0.000000     -0.000000     -2.516142
      0.00000      0.00000      1.12300         0.000000      0.000000      2.516142
 -----------------------------------------------------------------------------------
    total drift:                               -0.000000     -0.000000     -0.000731


--------------------------------------------------------------------------------------------------------



  FREE ENERGIE OF THE ION-ELECTRON SYSTEM (eV)
  ---------------------------------------------------
  free  energy   TOTEN  =       -14.77222060 eV

  energy  without entropy=      -14.77222060  energy(sigma->0) =      -14.77222060
 
 d Force =-0.9072766E-02[-0.101E+00, 0.825E-01]  d Energy =-0.4634183E-02-0.444E-02
 d Force =-0.1045376E+02[-0.108E+02,-0.101E+02]  d Ewald  =-0.1044728E+02-0.648E-02


--------------------------------------------------------------------------------------------------------


    POTLOK:  cpu time    0.0480: real time    0.0473


--------------------------------------------------------------------------------------------------------


 Finite differences progress:
  Degree of freedom:   2/  2
  Displacement:        2/  2
  Total:               4/  4
 
 SECOND DERIVATIVES (NOT SYMMETRIZED)
 ------------------------------------
               1Z          2Z 
  1Z  -114.735853  114.735853
  2Z   114.466153 -114.466153
 
 
 Eigenvectors and eigenvalues of the dynamical matrix
 ----------------------------------------------------
 
 
   1 f  =   63.888596 THz   401.423885 2PiTHz 2131.094090 cm-1   264.222087 meV
             X         Y         Z           dx          dy          dz
      0.000000  0.000000  0.000000            0           0   -0.655265  
      0.000000  0.000000  1.143000            0           0    0.755399  
 
   2 f/i=    0.037212 THz     0.233808 2PiTHz    1.241250 cm-1     0.153895 meV
             X         Y         Z           dx          dy          dz
      0.000000  0.000000  0.000000            0           0   -0.755399  
      0.000000  0.000000  1.143000            0           0   -0.655265  
 
 Finite differences POTIM=  2.000000000000000E-002
  LATTYP: Found a simple cubic cell.
 ALAT       =     8.0000000000
  
  Lattice vectors:
  
 A1 = (   8.0000000000,   0.0000000000,   0.0000000000)
 A2 = (   0.0000000000,   8.0000000000,   0.0000000000)
 A3 = (   0.0000000000,   0.0000000000,   8.0000000000)


Analysis of symmetry for initial positions (statically):
=====================================================================
 Subroutine PRICEL returns:
 Original cell was already a primitive cell.
 

 Routine SETGRP: Setting up the symmetry group for a 
 simple cubic supercell.


 Subroutine GETGRP returns: Found  8 space group operations
 (whereof  8 operations were pure point group operations)
 out of a pool of 48 trial point group operations.


The static configuration has the point symmetry C_4v.


Analysis of symmetry for dynamics (positions and initial velocities):
=====================================================================
 Subroutine PRICEL returns:
 Original cell was already a primitive cell.
 

 Routine SETGRP: Setting up the symmetry group for a 
 simple cubic supercell.


 Subroutine GETGRP returns: Found  8 space group operations
 (whereof  8 operations were pure point group operations)
 out of a pool of 48 trial point group operations.


The dynamic configuration has the point symmetry C_4v.


Analysis of constrained symmetry for selective dynamics:
=====================================================================
 Subroutine PRICEL returns:
 Original cell was already a primitive cell.
 

 Routine SETGRP: Setting up the symmetry group for a 
 simple cubic supercell.


 Subroutine GETGRP returns: Found  8 space group operations
 (whereof  8 operations were pure point group operations)
 out of a pool of 48 trial point group operations.


The constrained configuration has the point symmetry C_4v.
 
 KPOINTS: Gamma-point only                        
  k-points in reciprocal lattice
Space group operators:
 irot       det(A)        alpha          n_x          n_y          n_z        tau_x        tau_y        tau_z
    1     1.000000     0.000000     1.000000     0.000000     0.000000     0.000000     0.000000     0.000000
    2     1.000000    90.000000     0.000000     0.000000    -1.000000     0.000000     0.000000     0.000000
    3     1.000000   180.000000     0.000000     0.000000     1.000000     0.000000     0.000000     0.000000
    4     1.000000    90.000000     0.000000     0.000000     1.000000     0.000000     0.000000     0.000000
    5    -1.000000   180.000000     1.000000     0.000000     0.000000     0.000000     0.000000     0.000000
    6    -1.000000   180.000000     0.707107     0.707107     0.000000     0.000000     0.000000     0.000000
    7    -1.000000   180.000000     0.000000     1.000000     0.000000     0.000000     0.000000     0.000000
    8    -1.000000   180.000000     0.707107    -0.707107     0.000000     0.000000     0.000000     0.000000
 writing wavefunctions
     LOOP+:  cpu time    1.4881: real time    1.5465
    4ORBIT:  cpu time    0.0000: real time    0.0000

 total amount of memory used by VASP on root node    37433. kBytes
========================================================================

   base      :      30000. kBytes
   nonl-proj :       1492. kBytes
   fftplans  :       1377. kBytes
   grid      :       4409. kBytes
   one-center:          6. kBytes
   wavefun   :        149. kBytes
 
  
  
 General timing and accounting informations for this job:
 ========================================================
  
                  Total CPU time used (sec):       12.349
                            User time (sec):        9.501
                          System time (sec):        2.848
                         Elapsed time (sec):       12.812
  
                   Maximum memory used (kb):       37228.
                   Average memory used (kb):           0.
  
                          Minor page faults:        12538
                          Major page faults:            0
                 Voluntary context switches:         1301
