<?xml version="1.0" encoding="ISO-8859-1"?>
<modeling>
 <generator>
  <i name="program" type="string">vasp </i>
  <i name="version" type="string">5.4.1  </i>
  <i name="subversion" type="string">24Jun15 (build Apr 04 2016 10:44:54) complex                          parallel </i>
  <i name="platform" type="string">Titan </i>
  <i name="date" type="string">2018 12 04 </i>
  <i name="time" type="string">13:34:17 </i>
 </generator>
 <incar>
  <i type="string" name="SYSTEM"> CO dimer in a box</i>
  <i type="string" name="PREC">normal</i>
  <i type="int" name="IBRION">     5</i>
  <i type="int" name="NFREE">     2</i>
  <i type="int" name="NSW">     1</i>
  <i name="POTIM">      0.02000000</i>
  <i type="int" name="ISMEAR">     0</i>
  <v type="int" name="KPOINT_BSE">    -1     0     0     0</v>
 </incar>
 <kpoints>
  <varray name="kpointlist" >
   <v>       0.00000000       0.00000000       0.00000000 </v>
  </varray>
  <varray name="weights" >
   <v>       1.00000000 </v>
  </varray>
 </kpoints>
 <parameters>
  <separator name="general" >
   <i type="string" name="SYSTEM">CO dimer in a box</i>
   <i type="logical" name="LCOMPAT"> F  </i>
  </separator>
  <separator name="electronic" >
   <i type="string" name="PREC">normal</i>
   <i name="ENMAX">    400.00000000</i>
   <i name="ENAUG">    644.87300000</i>
   <i name="EDIFF">      0.00000100</i>
   <i type="int" name="IALGO">    38</i>
   <i type="int" name="IWAVPR">    11</i>
   <i type="int" name="NBANDS">    16</i>
   <i name="NELECT">     10.00000000</i>
   <i type="int" name="TURBO">     0</i>
   <i type="int" name="IRESTART">     0</i>
   <i type="int" name="NREBOOT">     0</i>
   <i type="int" name="NMIN">     0</i>
   <i name="EREF">      0.00000000</i>
   <separator name="electronic smearing" >
    <i type="int" name="ISMEAR">     0</i>
    <i name="SIGMA">      0.20000000</i>
    <i name="KSPACING">      0.50000000</i>
    <i type="logical" name="KGAMMA"> T  </i>
   </separator>
   <separator name="electronic projectors" >
    <i type="logical" name="LREAL"> F  </i>
    <v name="ROPT">      0.00000000      0.00000000</v>
    <i type="int" name="LMAXPAW">  -100</i>
    <i type="int" name="LMAXMIX">     2</i>
    <i type="logical" name="NLSPLINE"> F  </i>
   </separator>
   <separator name="electronic startup" >
    <i type="int" name="ISTART">     0</i>
    <i type="int" name="ICHARG">     2</i>
    <i type="int" name="INIWAV">     1</i>
   </separator>
   <separator name="electronic spin" >
    <i type="int" name="ISPIN">     1</i>
    <i type="logical" name="LNONCOLLINEAR"> F  </i>
    <v name="MAGMOM">      1.00000000      1.00000000</v>
    <i name="NUPDOWN">     -1.00000000</i>
    <i type="logical" name="LSORBIT"> F  </i>
    <v name="SAXIS">      0.00000000      0.00000000      1.00000000</v>
    <i type="logical" name="LSPIRAL"> F  </i>
    <v name="QSPIRAL">      0.00000000      0.00000000      0.00000000</v>
    <i type="logical" name="LZEROZ"> F  </i>
   </separator>
   <separator name="electronic exchange-correlation" >
    <i type="logical" name="LASPH"> F  </i>
    <i type="logical" name="LMETAGGA"> F  </i>
   </separator>
   <separator name="electronic convergence" >
    <i type="int" name="NELM">    60</i>
    <i type="int" name="NELMDL">    -5</i>
    <i type="int" name="NELMIN">     2</i>
    <i name="ENINI">    400.00000000</i>
    <separator name="electronic convergence detail" >
     <i type="logical" name="LDIAG"> T  </i>
     <i type="logical" name="LSUBROT"> F  </i>
     <i name="WEIMIN">      0.00100000</i>
     <i name="EBREAK">      0.00000002</i>
     <i name="DEPER">      0.30000000</i>
     <i type="int" name="NRMM">     4</i>
     <i name="TIME">      0.40000000</i>
    </separator>
   </separator>
   <separator name="electronic mixer" >
    <i name="AMIX">      0.40000000</i>
    <i name="BMIX">      1.00000000</i>
    <i name="AMIN">      0.10000000</i>
    <i name="AMIX_MAG">      1.60000000</i>
    <i name="BMIX_MAG">      1.00000000</i>
    <separator name="electronic mixer details" >
     <i type="int" name="IMIX">     4</i>
     <i type="logical" name="MIXFIRST"> F  </i>
     <i type="int" name="MAXMIX">   -45</i>
     <i name="WC">    100.00000000</i>
     <i type="int" name="INIMIX">     1</i>
     <i type="int" name="MIXPRE">     1</i>
     <i type="int" name="MREMOVE">     5</i>
    </separator>
   </separator>
   <separator name="electronic dipolcorrection" >
    <i type="logical" name="LDIPOL"> F  </i>
    <i type="logical" name="LMONO"> F  </i>
    <i type="int" name="IDIPOL">     0</i>
    <i name="EPSILON">      1.00000000</i>
    <v name="DIPOL">   -100.00000000   -100.00000000   -100.00000000</v>
    <i name="EFIELD">      0.00000000</i>
   </separator>
  </separator>
  <separator name="grids" >
   <i type="int" name="NGX">    40</i>
   <i type="int" name="NGY">    40</i>
   <i type="int" name="NGZ">    40</i>
   <i type="int" name="NGXF">    80</i>
   <i type="int" name="NGYF">    80</i>
   <i type="int" name="NGZF">    80</i>
   <i type="logical" name="ADDGRID"> F  </i>
  </separator>
  <separator name="ionic" >
   <i type="int" name="NSW">    61</i>
   <i type="int" name="IBRION">     5</i>
   <i type="int" name="ISIF">     2</i>
   <i name="PSTRESS">      0.00000000</i>
   <i name="EDIFFG">      0.00001000</i>
   <i type="int" name="NFREE">     2</i>
   <i name="POTIM">      0.02000000</i>
   <i name="SMASS">     -3.00000000</i>
   <i name="SCALEE">      1.00000000</i>
  </separator>
  <separator name="ionic md" >
   <i name="TEBEG">      0.00010000</i>
   <i name="TEEND">      0.00010000</i>
   <i type="int" name="NBLOCK">     1</i>
   <i type="int" name="KBLOCK">     1</i>
   <i type="int" name="NPACO">   256</i>
   <i name="APACO">     16.00000000</i>
  </separator>
  <separator name="symmetry" >
   <i type="int" name="ISYM">     2</i>
   <i name="SYMPREC">      0.00001000</i>
  </separator>
  <separator name="dos" >
   <i type="logical" name="LORBIT"> F  </i>
   <v name="RWIGS">     -1.00000000     -1.00000000</v>
   <i type="int" name="NEDOS">   301</i>
   <i name="EMIN">     10.00000000</i>
   <i name="EMAX">    -10.00000000</i>
   <i name="EFERMI">      0.00000000</i>
  </separator>
  <separator name="writing" >
   <i type="int" name="NWRITE">     2</i>
   <i type="logical" name="LWAVE"> T  </i>
   <i type="logical" name="LCHARG"> T  </i>
   <i type="logical" name="LPARD"> F  </i>
   <i type="logical" name="LVTOT"> F  </i>
   <i type="logical" name="LVHAR"> F  </i>
   <i type="logical" name="LELF"> F  </i>
   <i type="logical" name="LOPTICS"> F  </i>
   <v name="STM">      0.00000000      0.00000000      0.00000000      0.00000000      0.00000000      0.00000000      0.00000000</v>
  </separator>
  <separator name="performance" >
   <i type="int" name="NPAR">    16</i>
   <i type="int" name="NSIM">     4</i>
   <i type="int" name="NBLK">    -1</i>
   <i type="logical" name="LPLANE"> T  </i>
   <i type="logical" name="LSCALAPACK"> T  </i>
   <i type="logical" name="LSCAAWARE"> F  </i>
   <i type="logical" name="LSCALU"> F  </i>
   <i type="logical" name="LASYNC"> F  </i>
   <i type="logical" name="LORBITALREAL"> F  </i>
  </separator>
  <separator name="miscellaneous" >
   <i type="int" name="IDIOT">     3</i>
   <i type="logical" name="LMUSIC"> F  </i>
   <v name="POMASS">     16.00000000     12.01100000</v>
   <v name="DARWINR">      0.00000000      0.00000000</v>
   <v name="DARWINV">      1.00000000      1.00000000</v>
   <i type="logical" name="LCORR"> T  </i>
  </separator>
  <i type="logical" name="GGA_COMPAT"> T  </i>
  <i type="logical" name="LBERRY"> F  </i>
  <i type="int" name="ICORELEVEL">     0</i>
  <i type="logical" name="LDAU"> F  </i>
  <i type="int" name="I_CONSTRAINED_M">     0</i>
  <separator name="electronic exchange-correlation" >
   <i type="string" name="GGA">--</i>
   <i type="int" name="VOSKOWN">     0</i>
   <i type="logical" name="LHFCALC"> F  </i>
   <i type="string" name="PRECFOCK"></i>
   <i type="logical" name="LSYMGRAD"> F  </i>
   <i type="logical" name="LHFONE"> F  </i>
   <i type="logical" name="LRHFCALC"> F  </i>
   <i type="logical" name="LTHOMAS"> F  </i>
   <i type="logical" name="LMODELHF"> F  </i>
   <i name="ENCUT4O">     -1.00000000</i>
   <i type="int" name="EXXOEP">     0</i>
   <i type="int" name="FOURORBIT">     0</i>
   <i name="AEXX">      0.00000000</i>
   <i name="HFALPHA">      0.00000000</i>
   <i name="MCALPHA">      0.00000000</i>
   <i name="ALDAX">      1.00000000</i>
   <i name="AGGAX">      1.00000000</i>
   <i name="ALDAC">      1.00000000</i>
   <i name="AGGAC">      1.00000000</i>
   <i type="int" name="NKREDX">     1</i>
   <i type="int" name="NKREDY">     1</i>
   <i type="int" name="NKREDZ">     1</i>
   <i type="logical" name="SHIFTRED"> F  </i>
   <i type="logical" name="ODDONLY"> F  </i>
   <i type="logical" name="EVENONLY"> F  </i>
   <i type="int" name="LMAXFOCK">     0</i>
   <i type="int" name="NMAXFOCKAE">     0</i>
   <i type="logical" name="LFOCKAEDFT"> F  </i>
   <i name="HFSCREEN">      0.00000000</i>
   <i name="HFSCREENC">      0.00000000</i>
   <i type="int" name="NBANDSGWLOW">     0</i>
  </separator>
  <separator name="vdW DFT" >
   <i type="logical" name="LUSE_VDW"> F  </i>
   <i name="Zab_VDW">     -0.84910000</i>
   <i name="PARAM1">      0.12340000</i>
   <i name="PARAM2">      1.00000000</i>
   <i name="PARAM3">      0.00000000</i>
  </separator>
  <separator name="model GW" >
   <i type="int" name="MODEL_GW">     0</i>
   <i name="MODEL_EPS0">    153.60000000</i>
   <i name="MODEL_ALPHA">      1.00000000</i>
  </separator>
  <separator name="linear response parameters" >
   <i type="logical" name="LEPSILON"> F  </i>
   <i type="logical" name="LRPA"> F  </i>
   <i type="logical" name="LNABLA"> F  </i>
   <i type="logical" name="LVEL"> F  </i>
   <i type="int" name="KINTER">     0</i>
   <i name="CSHIFT">      0.10000000</i>
   <i name="OMEGAMAX">     -1.00000000</i>
   <i name="DEG_THRESHOLD">      0.00200000</i>
  </separator>
  <separator name="orbital magnetization" >
   <i type="logical" name="NUCIND"> F  </i>
   <v name="MAGPOS">      0.00000000      0.00000000      0.00000000</v>
   <i type="logical" name="LNICSALL"> T  </i>
   <i type="logical" name="ORBITALMAG"> F  </i>
   <i type="logical" name="LMAGBLOCH"> F  </i>
   <i type="logical" name="LCHIMAG"> F  </i>
   <i type="logical" name="LGAUGE"> T  </i>
   <i type="int" name="MAGATOM">     0</i>
   <v name="MAGDIPOL">      0.00000000      0.00000000      0.00000000</v>
   <v name="AVECCONST">      0.00000000      0.00000000      0.00000000</v>
  </separator>
  <separator name="response functions" >
   <i type="logical" name="LADDER"> F  </i>
   <i type="logical" name="LFXC"> F  </i>
   <i type="logical" name="LHARTREE"> T  </i>
   <i type="int" name="IBSE">     0</i>
   <v type="int" name="KPOINT">    -1     0     0     0</v>
   <i type="logical" name="LTCTE"> F  </i>
   <i type="logical" name="LTETE"> F  </i>
   <i type="logical" name="LTRIPLET"> F  </i>
   <i type="logical" name="LFXCEPS"> F  </i>
   <i type="logical" name="LFXHEG"> F  </i>
   <i type="int" name="NATURALO">     0</i>
   <i type="logical" name="L2ORDER"> F  </i>
   <i type="logical" name="LUSEW"> F  </i>
   <i name="ENCUTGW">     -2.00000000</i>
   <i name="ENCUTGWSOFT">     -2.00000000</i>
   <i name="ENCUTLF">     -1.00000000</i>
   <i type="int" name="LMAXMP2">    -1</i>
   <i name="SCISSOR">      0.00000000</i>
   <i type="int" name="NOMEGA">     0</i>
   <i type="int" name="NOMEGAR">     0</i>
   <i type="int" name="NBANDSGW">    -1</i>
   <i type="int" name="NBANDSO">    -1</i>
   <i type="int" name="NBANDSV">    -1</i>
   <i type="int" name="NELM">     1</i>
   <i type="int" name="NELMHF">     1</i>
   <i type="int" name="DIM">     3</i>
   <i type="int" name="ANTIRES">     0</i>
   <i name="OMEGAMAX">    -30.00000000</i>
   <i name="OMEGAMIN">    -30.00000000</i>
   <i name="OMEGATL">   -200.00000000</i>
   <i type="int" name="OMEGAGRID">     0</i>
   <i name="CSHIFT">     -0.10000000</i>
   <i type="logical" name="SELFENERGY"> F  </i>
   <i type="logical" name="LSPECTRAL"> F  </i>
   <i type="logical" name="LSPECTRALGW"> F  </i>
   <i type="logical" name="LSINGLES"> F  </i>
   <i type="logical" name="LFERMIGW"> F  </i>
   <i type="logical" name="ODDONLYGW"> F  </i>
   <i type="logical" name="EVENONLYGW"> F  </i>
   <i type="int" name="NKREDLFX">     1</i>
   <i type="int" name="NKREDLFY">     1</i>
   <i type="int" name="NKREDLFZ">     1</i>
   <i type="int" name="MAXMEM">  1800</i>
   <i type="int" name="TELESCOPE">     0</i>
   <i type="int" name="TAUPAR">     1</i>
   <i type="int" name="OMEGAPAR">    -1</i>
   <i name="LAMBDA">      1.00000000</i>
  </separator>
  <separator name="External order field" >
   <i name="OFIELD_KAPPA">      0.00000000</i>
   <v name="OFIELD_K">      0.00000000      0.00000000      0.00000000</v>
   <i name="OFIELD_Q6_NEAR">      0.00000000</i>
   <i name="OFIELD_Q6_FAR">      0.00000000</i>
   <i name="OFIELD_A">      0.00000000</i>
  </separator>
 </parameters>
 <atominfo>
  <atoms>       2 </atoms>
  <types>       2 </types>
  <array name="atoms" >
   <dimension dim="1">ion</dimension>
   <field type="string">element</field>
   <field type="int">atomtype</field>
   <set>
    <rc><c>O </c><c>   1</c></rc>
    <rc><c>C </c><c>   2</c></rc>
   </set>
  </array>
  <array name="atomtypes" >
   <dimension dim="1">type</dimension>
   <field type="int">atomspertype</field>
   <field type="string">element</field>
   <field>mass</field>
   <field>valence</field>
   <field type="string">pseudopotential</field>
   <set>
    <rc><c>   1</c><c>O </c><c>     16.00000000</c><c>      6.00000000</c><c> PAW_RPBE O 08Apr2002                   </c></rc>
    <rc><c>   1</c><c>C </c><c>     12.01100000</c><c>      4.00000000</c><c> PAW_RPBE C 08Apr2002                   </c></rc>
   </set>
  </array>
 </atominfo>
 <structure name="initialpos" >
  <crystal>
   <varray name="basis" >
    <v>       8.00000000       0.00000000       0.00000000 </v>
    <v>       0.00000000       8.00000000       0.00000000 </v>
    <v>       0.00000000       0.00000000       8.00000000 </v>
   </varray>
   <i name="volume">    512.00000000 </i>
   <varray name="rec_basis" >
    <v>       0.12500000       0.00000000       0.00000000 </v>
    <v>       0.00000000       0.12500000       0.00000000 </v>
    <v>       0.00000000       0.00000000       0.12500000 </v>
   </varray>
  </crystal>
  <varray name="positions" >
   <v>       0.00000000       0.00000000       0.00000000 </v>
   <v>       0.00000000       0.00000000       0.14287500 </v>
  </varray>
  <varray name="selective"  type="logical" >
   <v type="logical" >  F  F  T </v>
   <v type="logical" >  F  F  T </v>
  </varray>
  <nose>
   <v>      -3.00000000       0.00000000       0.00010000       0.00010000 </v>
  </nose>
 </structure>
 <calculation>
  <scstep>
   <time name="dav">    0.04    0.04</time>
   <time name="total">    0.11    0.12</time>
   <energy>
    <i name="alphaZ">      0.85010715 </i>
    <i name="ewald">     48.90784304 </i>
    <i name="hartreedc">   -512.54826743 </i>
    <i name="XCdc">     39.84835132 </i>
    <i name="pawpsdc">    283.82984571 </i>
    <i name="pawaedc">   -286.83001101 </i>
    <i name="eentropy">     -0.00000000 </i>
    <i name="bandstr">    -97.75301892 </i>
    <i name="atom">    579.39041991 </i>
    <i name="e_fr_energy">     55.69526976 </i>
    <i name="e_wo_entrp">     55.69526976 </i>
    <i name="e_0_energy">     55.69526976 </i>
   </energy>
  </scstep>
  <scstep>
   <time name="dav">    0.04    0.04</time>
   <time name="total">    0.04    0.04</time>
   <energy>
    <i name="e_fr_energy">     -7.63393116 </i>
    <i name="e_wo_entrp">     -7.63393116 </i>
    <i name="e_0_energy">     -7.63393116 </i>
   </energy>
  </scstep>
  <scstep>
   <time name="dav">    0.08    0.08</time>
   <time name="total">    0.08    0.08</time>
   <energy>
    <i name="e_fr_energy">    -15.58728674 </i>
    <i name="e_wo_entrp">    -15.58728674 </i>
    <i name="e_0_energy">    -15.58728674 </i>
   </energy>
  </scstep>
  <scstep>
   <time name="dav">    0.04    0.04</time>
   <time name="total">    0.04    0.04</time>
   <energy>
    <i name="e_fr_energy">    -15.59534327 </i>
    <i name="e_wo_entrp">    -15.59534327 </i>
    <i name="e_0_energy">    -15.59534327 </i>
   </energy>
  </scstep>
  <scstep>
   <time name="dav">    0.08    0.07</time>
   <time name="total">    0.10    0.11</time>
   <energy>
    <i name="e_fr_energy">    -15.59537254 </i>
    <i name="e_wo_entrp">    -15.59537254 </i>
    <i name="e_0_energy">    -15.59537254 </i>
   </energy>
  </scstep>
  <scstep>
   <time name="dav">    0.04    0.04</time>
   <time name="total">    0.10    0.11</time>
   <energy>
    <i name="e_fr_energy">    -14.95888941 </i>
    <i name="e_wo_entrp">    -14.95888941 </i>
    <i name="e_0_energy">    -14.95888941 </i>
   </energy>
  </scstep>
  <scstep>
   <time name="dav">    0.08    0.08</time>
   <time name="total">    0.14    0.14</time>
   <energy>
    <i name="e_fr_energy">    -14.83161361 </i>
    <i name="e_wo_entrp">    -14.83161361 </i>
    <i name="e_0_energy">    -14.83161361 </i>
   </energy>
  </scstep>
  <scstep>
   <time name="dav">    0.08    0.07</time>
   <time name="total">    0.14    0.14</time>
   <energy>
    <i name="e_fr_energy">    -14.79340624 </i>
    <i name="e_wo_entrp">    -14.79340624 </i>
    <i name="e_0_energy">    -14.79340624 </i>
   </energy>
  </scstep>
  <scstep>
   <time name="dav">    0.08    0.07</time>
   <time name="total">    0.14    0.14</time>
   <energy>
    <i name="e_fr_energy">    -14.79251177 </i>
    <i name="e_wo_entrp">    -14.79251177 </i>
    <i name="e_0_energy">    -14.79251177 </i>
   </energy>
  </scstep>
  <scstep>
   <time name="dav">    0.08    0.08</time>
   <time name="total">    0.14    0.14</time>
   <energy>
    <i name="e_fr_energy">    -14.79350990 </i>
    <i name="e_wo_entrp">    -14.79350990 </i>
    <i name="e_0_energy">    -14.79350990 </i>
   </energy>
  </scstep>
  <scstep>
   <time name="dav">    0.06    0.06</time>
   <time name="total">    0.12    0.12</time>
   <energy>
    <i name="e_fr_energy">    -14.79583515 </i>
    <i name="e_wo_entrp">    -14.79583515 </i>
    <i name="e_0_energy">    -14.79583515 </i>
   </energy>
  </scstep>
  <scstep>
   <time name="dav">    0.04    0.04</time>
   <time name="total">    0.10    0.10</time>
   <energy>
    <i name="e_fr_energy">    -14.79681779 </i>
    <i name="e_wo_entrp">    -14.79681779 </i>
    <i name="e_0_energy">    -14.79681779 </i>
   </energy>
  </scstep>
  <scstep>
   <time name="dav">    0.04    0.04</time>
   <time name="total">    0.10    0.11</time>
   <energy>
    <i name="e_fr_energy">    -14.79719159 </i>
    <i name="e_wo_entrp">    -14.79719159 </i>
    <i name="e_0_energy">    -14.79719159 </i>
   </energy>
  </scstep>
  <scstep>
   <time name="dav">    0.04    0.04</time>
   <time name="total">    0.10    0.10</time>
   <energy>
    <i name="e_fr_energy">    -14.79737686 </i>
    <i name="e_wo_entrp">    -14.79737686 </i>
    <i name="e_0_energy">    -14.79737686 </i>
   </energy>
  </scstep>
  <scstep>
   <time name="dav">    0.04    0.04</time>
   <time name="total">    0.10    0.11</time>
   <energy>
    <i name="e_fr_energy">    -14.79739578 </i>
    <i name="e_wo_entrp">    -14.79739578 </i>
    <i name="e_0_energy">    -14.79739578 </i>
   </energy>
  </scstep>
  <scstep>
   <time name="dav">    0.04    0.04</time>
   <time name="total">    0.10    0.11</time>
   <energy>
    <i name="e_fr_energy">    -14.79740672 </i>
    <i name="e_wo_entrp">    -14.79740672 </i>
    <i name="e_0_energy">    -14.79740672 </i>
   </energy>
  </scstep>
  <scstep>
   <time name="dav">    0.08    0.08</time>
   <time name="total">    0.12    0.12</time>
   <energy>
    <i name="alphaZ">      0.85010715 </i>
    <i name="ewald">     48.90784304 </i>
    <i name="hartreedc">   -533.00664732 </i>
    <i name="XCdc">     41.06070984 </i>
    <i name="pawpsdc">    376.83076882 </i>
    <i name="pawaedc">   -379.93242829 </i>
    <i name="eentropy">     -0.00000000 </i>
    <i name="bandstr">   -148.89818060 </i>
    <i name="atom">    579.39041991 </i>
    <i name="e_fr_energy">    -14.79740745 </i>
    <i name="e_wo_entrp">    -14.79740745 </i>
    <i name="e_0_energy">    -14.79740745 </i>
   </energy>
  </scstep>
  <structure>
   <crystal>
    <varray name="basis" >
     <v>       8.00000000       0.00000000       0.00000000 </v>
     <v>       0.00000000       8.00000000       0.00000000 </v>
     <v>       0.00000000       0.00000000       8.00000000 </v>
    </varray>
    <i name="volume">    512.00000000 </i>
    <varray name="rec_basis" >
     <v>       0.12500000       0.00000000       0.00000000 </v>
     <v>       0.00000000       0.12500000       0.00000000 </v>
     <v>       0.00000000       0.00000000       0.12500000 </v>
    </varray>
   </crystal>
   <varray name="positions" >
    <v>       0.00000000       0.00000000       0.00000000 </v>
    <v>       0.00000000       0.00000000       0.14287500 </v>
   </varray>
  </structure>
  <varray name="forces" >
   <v>       0.00000000      -0.00000000      -0.06311900 </v>
   <v>       0.00000000       0.00000000       0.06311900 </v>
  </varray>
  <varray name="stress" >
   <v>      -2.41145741       0.00000000       0.00000000 </v>
   <v>       0.00000000      -2.41145741       0.00000000 </v>
   <v>       0.00000000      -0.00000000      -2.11021329 </v>
  </varray>
  <energy>
   <i name="e_fr_energy">    -14.79740745 </i>
   <i name="e_wo_entrp">    -14.79740745 </i>
   <i name="e_0_energy">     -0.00000000 </i>
  </energy>
  <kpoints>
   <varray name="kpointlist" >
    <v>       0.00000000       0.00000000       0.00000000 </v>
   </varray>
   <varray name="weights" >
    <v>       1.00000000 </v>
   </varray>
  </kpoints>
  <time name="totalsc">    3.71    3.83</time>
 </calculation>
 <calculation>
  <scstep>
   <time name="dav">    0.04    0.04</time>
   <time name="total">    0.10    0.10</time>
   <energy>
    <i name="alphaZ">      0.85010715 </i>
    <i name="ewald">     54.22475701 </i>
    <i name="hartreedc">   -536.10964940 </i>
    <i name="XCdc">     41.15701106 </i>
    <i name="pawpsdc">    376.83115603 </i>
    <i name="pawaedc">   -379.93283649 </i>
    <i name="eentropy">     -0.00000000 </i>
    <i name="bandstr">   -151.18382080 </i>
    <i name="atom">    579.39041991 </i>
    <i name="e_fr_energy">    -14.77285554 </i>
    <i name="e_wo_entrp">    -14.77285554 </i>
    <i name="e_0_energy">    -14.77285554 </i>
   </energy>
  </scstep>
  <scstep>
   <time name="dav">    0.08    0.08</time>
   <time name="total">    0.14    0.15</time>
   <energy>
    <i name="e_fr_energy">    -14.77292173 </i>
    <i name="e_wo_entrp">    -14.77292173 </i>
    <i name="e_0_energy">    -14.77292173 </i>
   </energy>
  </scstep>
  <scstep>
   <time name="dav">    0.04    0.04</time>
   <time name="total">    0.10    0.11</time>
   <energy>
    <i name="e_fr_energy">    -14.77191269 </i>
    <i name="e_wo_entrp">    -14.77191269 </i>
    <i name="e_0_energy">    -14.77191269 </i>
   </energy>
  </scstep>
  <scstep>
   <time name="dav">    0.06    0.05</time>
   <time name="total">    0.12    0.12</time>
   <energy>
    <i name="e_fr_energy">    -14.77192604 </i>
    <i name="e_wo_entrp">    -14.77192604 </i>
    <i name="e_0_energy">    -14.77192604 </i>
   </energy>
  </scstep>
  <scstep>
   <time name="dav">    0.08    0.08</time>
   <time name="total">    0.14    0.15</time>
   <energy>
    <i name="e_fr_energy">    -14.77193402 </i>
    <i name="e_wo_entrp">    -14.77193402 </i>
    <i name="e_0_energy">    -14.77193402 </i>
   </energy>
  </scstep>
  <scstep>
   <time name="dav">    0.04    0.04</time>
   <time name="total">    0.10    0.11</time>
   <energy>
    <i name="e_fr_energy">    -14.77195392 </i>
    <i name="e_wo_entrp">    -14.77195392 </i>
    <i name="e_0_energy">    -14.77195392 </i>
   </energy>
  </scstep>
  <scstep>
   <time name="dav">    0.04    0.04</time>
   <time name="total">    0.10    0.10</time>
   <energy>
    <i name="e_fr_energy">    -14.77198432 </i>
    <i name="e_wo_entrp">    -14.77198432 </i>
    <i name="e_0_energy">    -14.77198432 </i>
   </energy>
  </scstep>
  <scstep>
   <time name="dav">    0.04    0.04</time>
   <time name="total">    0.10    0.11</time>
   <energy>
    <i name="e_fr_energy">    -14.77200431 </i>
    <i name="e_wo_entrp">    -14.77200431 </i>
    <i name="e_0_energy">    -14.77200431 </i>
   </energy>
  </scstep>
  <scstep>
   <time name="dav">    0.04    0.04</time>
   <time name="total">    0.10    0.11</time>
   <energy>
    <i name="e_fr_energy">    -14.77201743 </i>
    <i name="e_wo_entrp">    -14.77201743 </i>
    <i name="e_0_energy">    -14.77201743 </i>
   </energy>
  </scstep>
  <scstep>
   <time name="dav">    0.04    0.04</time>
   <time name="total">    0.10    0.11</time>
   <energy>
    <i name="e_fr_energy">    -14.77202187 </i>
    <i name="e_wo_entrp">    -14.77202187 </i>
    <i name="e_0_energy">    -14.77202187 </i>
   </energy>
  </scstep>
  <scstep>
   <time name="dav">    0.04    0.04</time>
   <time name="total">    0.10    0.13</time>
   <energy>
    <i name="e_fr_energy">    -14.77202331 </i>
    <i name="e_wo_entrp">    -14.77202331 </i>
    <i name="e_0_energy">    -14.77202331 </i>
   </energy>
  </scstep>
  <scstep>
   <time name="dav">    0.04    0.04</time>
   <time name="total">    0.09    0.09</time>
   <energy>
    <i name="alphaZ">      0.85010715 </i>
    <i name="ewald">     54.22475701 </i>
    <i name="hartreedc">   -537.23869194 </i>
    <i name="XCdc">     41.22052322 </i>
    <i name="pawpsdc">    383.60342992 </i>
    <i name="pawaedc">   -386.73808152 </i>
    <i name="eentropy">     -0.00000000 </i>
    <i name="bandstr">   -150.08448721 </i>
    <i name="atom">    579.39041991 </i>
    <i name="e_fr_energy">    -14.77202347 </i>
    <i name="e_wo_entrp">    -14.77202347 </i>
    <i name="e_0_energy">    -14.77202347 </i>
   </energy>
  </scstep>
  <structure>
   <crystal>
    <varray name="basis" >
     <v>       8.00000000       0.00000000       0.00000000 </v>
     <v>       0.00000000       8.00000000       0.00000000 </v>
     <v>       0.00000000       0.00000000       8.00000000 </v>
    </varray>
    <i name="volume">    512.00000000 </i>
    <varray name="rec_basis" >
     <v>       0.12500000       0.00000000       0.00000000 </v>
     <v>       0.00000000       0.12500000       0.00000000 </v>
     <v>       0.00000000       0.00000000       0.12500000 </v>
    </varray>
   </crystal>
   <varray name="positions" >
    <v>       0.00000000       0.00000000       0.00250000 </v>
    <v>       0.00000000       0.00000000       0.14287500 </v>
   </varray>
  </structure>
  <varray name="forces" >
   <v>       0.00000000       0.00000000      -2.52208443 </v>
   <v>       0.00000000      -0.00000000       2.52208443 </v>
  </varray>
  <varray name="stress" >
   <v>      -2.40613674       0.00000000       0.00000000 </v>
   <v>       0.00000000      -2.40613674       0.00000000 </v>
   <v>       0.00000000       0.00000000       6.48091052 </v>
  </varray>
  <energy>
   <i name="e_fr_energy">    -14.77202347 </i>
   <i name="e_wo_entrp">    -14.77202347 </i>
   <i name="e_0_energy">     -0.00000000 </i>
  </energy>
  <kpoints>
   <varray name="kpointlist" >
    <v>       0.00000000       0.00000000       0.00000000 </v>
   </varray>
   <varray name="weights" >
    <v>       1.00000000 </v>
   </varray>
  </kpoints>
  <time name="totalsc">    1.50    1.59</time>
 </calculation>
 <calculation>
  <scstep>
   <time name="dav">    0.04    0.04</time>
   <time name="total">    0.10    0.11</time>
   <energy>
    <i name="alphaZ">      0.85010715 </i>
    <i name="ewald">     43.77747250 </i>
    <i name="hartreedc">   -531.01719608 </i>
    <i name="XCdc">     41.02875101 </i>
    <i name="pawpsdc">    383.60326153 </i>
    <i name="pawaedc">   -386.73791019 </i>
    <i name="eentropy">     -0.00000000 </i>
    <i name="bandstr">   -145.67768616 </i>
    <i name="atom">    579.39041991 </i>
    <i name="e_fr_energy">    -14.78278034 </i>
    <i name="e_wo_entrp">    -14.78278034 </i>
    <i name="e_0_energy">    -14.78278034 </i>
   </energy>
  </scstep>
  <scstep>
   <time name="dav">    0.04    0.04</time>
   <time name="total">    0.10    0.10</time>
   <energy>
    <i name="e_fr_energy">    -14.77951615 </i>
    <i name="e_wo_entrp">    -14.77951615 </i>
    <i name="e_0_energy">    -14.77951615 </i>
   </energy>
  </scstep>
  <scstep>
   <time name="dav">    0.04    0.04</time>
   <time name="total">    0.10    0.10</time>
   <energy>
    <i name="e_fr_energy">    -14.77642240 </i>
    <i name="e_wo_entrp">    -14.77642240 </i>
    <i name="e_0_energy">    -14.77642240 </i>
   </energy>
  </scstep>
  <scstep>
   <time name="dav">    0.04    0.04</time>
   <time name="total">    0.10    0.10</time>
   <energy>
    <i name="e_fr_energy">    -14.77650476 </i>
    <i name="e_wo_entrp">    -14.77650476 </i>
    <i name="e_0_energy">    -14.77650476 </i>
   </energy>
  </scstep>
  <scstep>
   <time name="dav">    0.04    0.04</time>
   <time name="total">    0.10    0.10</time>
   <energy>
    <i name="e_fr_energy">    -14.77662667 </i>
    <i name="e_wo_entrp">    -14.77662667 </i>
    <i name="e_0_energy">    -14.77662667 </i>
   </energy>
  </scstep>
  <scstep>
   <time name="dav">    0.08    0.08</time>
   <time name="total">    0.14    0.14</time>
   <energy>
    <i name="e_fr_energy">    -14.77666576 </i>
    <i name="e_wo_entrp">    -14.77666576 </i>
    <i name="e_0_energy">    -14.77666576 </i>
   </energy>
  </scstep>
  <scstep>
   <time name="dav">    0.04    0.04</time>
   <time name="total">    0.10    0.10</time>
   <energy>
    <i name="e_fr_energy">    -14.77674929 </i>
    <i name="e_wo_entrp">    -14.77674929 </i>
    <i name="e_0_energy">    -14.77674929 </i>
   </energy>
  </scstep>
  <scstep>
   <time name="dav">    0.04    0.04</time>
   <time name="total">    0.10    0.10</time>
   <energy>
    <i name="e_fr_energy">    -14.77678248 </i>
    <i name="e_wo_entrp">    -14.77678248 </i>
    <i name="e_0_energy">    -14.77678248 </i>
   </energy>
  </scstep>
  <scstep>
   <time name="dav">    0.04    0.04</time>
   <time name="total">    0.10    0.10</time>
   <energy>
    <i name="e_fr_energy">    -14.77680566 </i>
    <i name="e_wo_entrp">    -14.77680566 </i>
    <i name="e_0_energy">    -14.77680566 </i>
   </energy>
  </scstep>
  <scstep>
   <time name="dav">    0.04    0.04</time>
   <time name="total">    0.10    0.11</time>
   <energy>
    <i name="e_fr_energy">    -14.77681279 </i>
    <i name="e_wo_entrp">    -14.77681279 </i>
    <i name="e_0_energy">    -14.77681279 </i>
   </energy>
  </scstep>
  <scstep>
   <time name="dav">    0.04    0.04</time>
   <time name="total">    0.10    0.11</time>
   <energy>
    <i name="e_fr_energy">    -14.77681483 </i>
    <i name="e_wo_entrp">    -14.77681483 </i>
    <i name="e_0_energy">    -14.77681483 </i>
   </energy>
  </scstep>
  <scstep>
   <time name="dav">    0.04    0.04</time>
   <time name="total">    0.08    0.09</time>
   <energy>
    <i name="alphaZ">      0.85010715 </i>
    <i name="ewald">     43.77747250 </i>
    <i name="hartreedc">   -528.88969930 </i>
    <i name="XCdc">     40.90677618 </i>
    <i name="pawpsdc">    370.47678669 </i>
    <i name="pawaedc">   -373.54868270 </i>
    <i name="eentropy">     -0.00000000 </i>
    <i name="bandstr">   -147.73999579 </i>
    <i name="atom">    579.39041991 </i>
    <i name="e_fr_energy">    -14.77681536 </i>
    <i name="e_wo_entrp">    -14.77681536 </i>
    <i name="e_0_energy">    -14.77681536 </i>
   </energy>
  </scstep>
  <structure>
   <crystal>
    <varray name="basis" >
     <v>       8.00000000       0.00000000       0.00000000 </v>
     <v>       0.00000000       8.00000000       0.00000000 </v>
     <v>       0.00000000       0.00000000       8.00000000 </v>
    </varray>
    <i name="volume">    512.00000000 </i>
    <varray name="rec_basis" >
     <v>       0.12500000       0.00000000       0.00000000 </v>
     <v>       0.00000000       0.12500000       0.00000000 </v>
     <v>       0.00000000       0.00000000       0.12500000 </v>
    </varray>
   </crystal>
   <varray name="positions" >
    <v>       0.00000000       0.00000000      -0.00250000 </v>
    <v>       0.00000000       0.00000000       0.14287500 </v>
   </varray>
  </structure>
  <varray name="forces" >
   <v>       0.00000000      -0.00000000       2.06734969 </v>
   <v>      -0.00000000       0.00000000      -2.06734969 </v>
  </varray>
  <varray name="stress" >
   <v>      -2.41815695       0.00000000       0.00000000 </v>
   <v>       0.00000000      -2.41815695       0.00000000 </v>
   <v>       0.00000000       0.00000000      -9.80359751 </v>
  </varray>
  <energy>
   <i name="e_fr_energy">    -14.77681536 </i>
   <i name="e_wo_entrp">    -14.77681536 </i>
   <i name="e_0_energy">     -0.00000000 </i>
  </energy>
  <kpoints>
   <varray name="kpointlist" >
    <v>       0.00000000       0.00000000       0.00000000 </v>
   </varray>
   <varray name="weights" >
    <v>       1.00000000 </v>
   </varray>
  </kpoints>
  <time name="totalsc">    1.42    1.48</time>
 </calculation>
 <calculation>
  <scstep>
   <time name="dav">    0.04    0.04</time>
   <time name="total">    0.10    0.11</time>
   <energy>
    <i name="alphaZ">      0.85010715 </i>
    <i name="ewald">     43.77747250 </i>
    <i name="hartreedc">   -528.94070232 </i>
    <i name="XCdc">     40.91466603 </i>
    <i name="pawpsdc">    370.47638720 </i>
    <i name="pawaedc">   -373.54827888 </i>
    <i name="eentropy">     -0.00000000 </i>
    <i name="bandstr">   -147.69566217 </i>
    <i name="atom">    579.39041991 </i>
    <i name="e_fr_energy">    -14.77559058 </i>
    <i name="e_wo_entrp">    -14.77559058 </i>
    <i name="e_0_energy">    -14.77559058 </i>
   </energy>
  </scstep>
  <scstep>
   <time name="dav">    0.04    0.04</time>
   <time name="total">    0.10    0.11</time>
   <energy>
    <i name="e_fr_energy">    -14.77667952 </i>
    <i name="e_wo_entrp">    -14.77667952 </i>
    <i name="e_0_energy">    -14.77667952 </i>
   </energy>
  </scstep>
  <scstep>
   <time name="dav">    0.08    0.08</time>
   <time name="total">    0.14    0.14</time>
   <energy>
    <i name="e_fr_energy">    -14.77689542 </i>
    <i name="e_wo_entrp">    -14.77689542 </i>
    <i name="e_0_energy">    -14.77689542 </i>
   </energy>
  </scstep>
  <scstep>
   <time name="dav">    0.04    0.04</time>
   <time name="total">    0.10    0.11</time>
   <energy>
    <i name="e_fr_energy">    -14.77685182 </i>
    <i name="e_wo_entrp">    -14.77685182 </i>
    <i name="e_0_energy">    -14.77685182 </i>
   </energy>
  </scstep>
  <scstep>
   <time name="dav">    0.06    0.06</time>
   <time name="total">    0.12    0.12</time>
   <energy>
    <i name="e_fr_energy">    -14.77685431 </i>
    <i name="e_wo_entrp">    -14.77685431 </i>
    <i name="e_0_energy">    -14.77685431 </i>
   </energy>
  </scstep>
  <scstep>
   <time name="dav">    0.04    0.04</time>
   <time name="total">    0.08    0.09</time>
   <energy>
    <i name="alphaZ">      0.85010715 </i>
    <i name="ewald">     43.77747250 </i>
    <i name="hartreedc">   -528.88731145 </i>
    <i name="XCdc">     40.90674180 </i>
    <i name="pawpsdc">    370.47212965 </i>
    <i name="pawaedc">   -373.54391106 </i>
    <i name="eentropy">     -0.00000000 </i>
    <i name="bandstr">   -147.74250328 </i>
    <i name="atom">    579.39041991 </i>
    <i name="e_fr_energy">    -14.77685479 </i>
    <i name="e_wo_entrp">    -14.77685479 </i>
    <i name="e_0_energy">    -14.77685479 </i>
   </energy>
  </scstep>
  <structure>
   <crystal>
    <varray name="basis" >
     <v>       8.00000000       0.00000000       0.00000000 </v>
     <v>       0.00000000       8.00000000       0.00000000 </v>
     <v>       0.00000000       0.00000000       8.00000000 </v>
    </varray>
    <i name="volume">    512.00000000 </i>
    <varray name="rec_basis" >
     <v>       0.12500000       0.00000000       0.00000000 </v>
     <v>       0.00000000       0.12500000       0.00000000 </v>
     <v>       0.00000000       0.00000000       0.12500000 </v>
    </varray>
   </crystal>
   <varray name="positions" >
    <v>       0.00000000       0.00000000       0.00000000 </v>
    <v>       0.00000000       0.00000000       0.14537500 </v>
   </varray>
  </structure>
  <varray name="forces" >
   <v>       0.00000000      -0.00000000       2.06250391 </v>
   <v>       0.00000000       0.00000000      -2.06250391 </v>
  </varray>
  <varray name="stress" >
   <v>      -2.41028604       0.00000000       0.00000000 </v>
   <v>       0.00000000      -2.41028604       0.00000000 </v>
   <v>       0.00000000       0.00000000      -9.79032408 </v>
  </varray>
  <energy>
   <i name="e_fr_energy">    -14.77685479 </i>
   <i name="e_wo_entrp">    -14.77685479 </i>
   <i name="e_0_energy">     -0.00000000 </i>
  </energy>
  <kpoints>
   <varray name="kpointlist" >
    <v>       0.00000000       0.00000000       0.00000000 </v>
   </varray>
   <varray name="weights" >
    <v>       1.00000000 </v>
   </varray>
  </kpoints>
  <time name="totalsc">    0.85    0.89</time>
 </calculation>
 <calculation>
  <scstep>
   <time name="dav">    0.04    0.04</time>
   <time name="total">    0.10    0.10</time>
   <energy>
    <i name="alphaZ">      0.85010715 </i>
    <i name="ewald">     54.22475701 </i>
    <i name="hartreedc">   -534.92096570 </i>
    <i name="XCdc">     41.07994886 </i>
    <i name="pawpsdc">    370.47545704 </i>
    <i name="pawaedc">   -373.54729055 </i>
    <i name="eentropy">     -0.00000000 </i>
    <i name="bandstr">   -152.33497943 </i>
    <i name="atom">    579.39041991 </i>
    <i name="e_fr_energy">    -14.78254571 </i>
    <i name="e_wo_entrp">    -14.78254571 </i>
    <i name="e_0_energy">    -14.78254571 </i>
   </energy>
  </scstep>
  <scstep>
   <time name="dav">    0.04    0.04</time>
   <time name="total">    0.10    0.11</time>
   <energy>
    <i name="e_fr_energy">    -14.77480295 </i>
    <i name="e_wo_entrp">    -14.77480295 </i>
    <i name="e_0_energy">    -14.77480295 </i>
   </energy>
  </scstep>
  <scstep>
   <time name="dav">    0.04    0.04</time>
   <time name="total">    0.10    0.11</time>
   <energy>
    <i name="e_fr_energy">    -14.77203256 </i>
    <i name="e_wo_entrp">    -14.77203256 </i>
    <i name="e_0_energy">    -14.77203256 </i>
   </energy>
  </scstep>
  <scstep>
   <time name="dav">    0.08    0.08</time>
   <time name="total">    0.14    0.14</time>
   <energy>
    <i name="e_fr_energy">    -14.77184937 </i>
    <i name="e_wo_entrp">    -14.77184937 </i>
    <i name="e_0_energy">    -14.77184937 </i>
   </energy>
  </scstep>
  <scstep>
   <time name="dav">    0.04    0.04</time>
   <time name="total">    0.10    0.10</time>
   <energy>
    <i name="e_fr_energy">    -14.77191837 </i>
    <i name="e_wo_entrp">    -14.77191837 </i>
    <i name="e_0_energy">    -14.77191837 </i>
   </energy>
  </scstep>
  <scstep>
   <time name="dav">    0.08    0.08</time>
   <time name="total">    0.14    0.14</time>
   <energy>
    <i name="e_fr_energy">    -14.77196829 </i>
    <i name="e_wo_entrp">    -14.77196829 </i>
    <i name="e_0_energy">    -14.77196829 </i>
   </energy>
  </scstep>
  <scstep>
   <time name="dav">    0.04    0.04</time>
   <time name="total">    0.10    0.11</time>
   <energy>
    <i name="e_fr_energy">    -14.77209365 </i>
    <i name="e_wo_entrp">    -14.77209365 </i>
    <i name="e_0_energy">    -14.77209365 </i>
   </energy>
  </scstep>
  <scstep>
   <time name="dav">    0.04    0.04</time>
   <time name="total">    0.10    0.10</time>
   <energy>
    <i name="e_fr_energy">    -14.77215915 </i>
    <i name="e_wo_entrp">    -14.77215915 </i>
    <i name="e_0_energy">    -14.77215915 </i>
   </energy>
  </scstep>
  <scstep>
   <time name="dav">    0.04    0.04</time>
   <time name="total">    0.10    0.10</time>
   <energy>
    <i name="e_fr_energy">    -14.77220577 </i>
    <i name="e_wo_entrp">    -14.77220577 </i>
    <i name="e_0_energy">    -14.77220577 </i>
   </energy>
  </scstep>
  <scstep>
   <time name="dav">    0.04    0.04</time>
   <time name="total">    0.10    0.11</time>
   <energy>
    <i name="e_fr_energy">    -14.77221619 </i>
    <i name="e_wo_entrp">    -14.77221619 </i>
    <i name="e_0_energy">    -14.77221619 </i>
   </energy>
  </scstep>
  <scstep>
   <time name="dav">    0.04    0.04</time>
   <time name="total">    0.10    0.11</time>
   <energy>
    <i name="e_fr_energy">    -14.77221969 </i>
    <i name="e_wo_entrp">    -14.77221969 </i>
    <i name="e_0_energy">    -14.77221969 </i>
   </energy>
  </scstep>
  <scstep>
   <time name="dav">    0.04    0.04</time>
   <time name="total">    0.09    0.09</time>
   <energy>
    <i name="alphaZ">      0.85010715 </i>
    <i name="ewald">     54.22475701 </i>
    <i name="hartreedc">   -537.23898276 </i>
    <i name="XCdc">     41.22051486 </i>
    <i name="pawpsdc">    383.60355631 </i>
    <i name="pawaedc">   -386.73827383 </i>
    <i name="eentropy">     -0.00000000 </i>
    <i name="bandstr">   -150.08431925 </i>
    <i name="atom">    579.39041991 </i>
    <i name="e_fr_energy">    -14.77222060 </i>
    <i name="e_wo_entrp">    -14.77222060 </i>
    <i name="e_0_energy">    -14.77222060 </i>
   </energy>
  </scstep>
  <structure>
   <crystal>
    <varray name="basis" >
     <v>       8.00000000       0.00000000       0.00000000 </v>
     <v>       0.00000000       8.00000000       0.00000000 </v>
     <v>       0.00000000       0.00000000       8.00000000 </v>
    </varray>
    <i name="volume">    512.00000000 </i>
    <varray name="rec_basis" >
     <v>       0.12500000       0.00000000       0.00000000 </v>
     <v>       0.00000000       0.12500000       0.00000000 </v>
     <v>       0.00000000       0.00000000       0.12500000 </v>
    </varray>
   </crystal>
   <varray name="positions" >
    <v>       0.00000000       0.00000000       0.00000000 </v>
    <v>       0.00000000       0.00000000       0.14037500 </v>
   </varray>
  </structure>
  <varray name="forces" >
   <v>       0.00000000      -0.00000000      -2.51614220 </v>
   <v>       0.00000000       0.00000000       2.51614220 </v>
  </varray>
  <varray name="stress" >
   <v>      -2.40719532       0.00000000      -0.00000000 </v>
   <v>       0.00000000      -2.40719532       0.00000000 </v>
   <v>       0.00000000       0.00000000       6.45708267 </v>
  </varray>
  <energy>
   <i name="e_fr_energy">    -14.77222060 </i>
   <i name="e_wo_entrp">    -14.77222060 </i>
   <i name="e_0_energy">     -0.00000000 </i>
  </energy>
  <dynmat>
   <varray name="hessian" >
    <v>      -7.17099081       8.26682688 </v>
    <v>       8.26682688      -9.53011012 </v>
   </varray>
   <v name="eigenvalues"> -1.67011066E+01  5.66576383E-06</v>
   <varray name="eigenvectors" >
    <v>  -6.55265129E-01  7.55398975E-01</v>
    <v>  -7.55398975E-01 -6.55265129E-01</v>
   </varray>
  </dynmat>
  <kpoints>
   <varray name="kpointlist" >
    <v>       0.00000000       0.00000000       0.00000000 </v>
   </varray>
   <varray name="weights" >
    <v>       1.00000000 </v>
   </varray>
  </kpoints>
  <time name="totalsc">    1.49    1.55</time>
  <eigenvalues>
   <array>
    <dimension dim="1">band</dimension>
    <dimension dim="2">kpoint</dimension>
    <dimension dim="3">spin</dimension>
    <field>eigene</field>
    <field>occ</field>
    <set>
     <set comment="spin 1">
      <set comment="kpoint 1">
       <r>  -29.2852    1.0000 </r>
       <r>  -13.7496    1.0000 </r>
       <r>  -11.6431    1.0000 </r>
       <r>  -11.6431    1.0000 </r>
       <r>   -8.7212    1.0000 </r>
       <r>   -1.6577    0.0000 </r>
       <r>   -1.6577    0.0000 </r>
       <r>   -0.2576    0.0000 </r>
       <r>    1.7019    0.0000 </r>
       <r>    1.8678    0.0000 </r>
       <r>    1.8678    0.0000 </r>
       <r>    1.8943    0.0000 </r>
       <r>    1.9371    0.0000 </r>
       <r>    2.5167    0.0000 </r>
       <r>    3.6909    0.0000 </r>
       <r>    4.1351    0.0000 </r>
      </set>
     </set>
    </set>
   </array>
  </eigenvalues>
  <separator name="orbital magnetization" >
   <v name="MAGDIPOLOUT">      0.00000000      0.00000000      0.00000000</v>
  </separator>
  <dos>
   <i name="efermi">     -7.70944781 </i>
   <total>
    <array>
     <dimension dim="1">gridpoints</dimension>
     <dimension dim="2">spin</dimension>
     <field>energy</field>
     <field>total</field>
     <field>integrated</field>
     <set>
      <set comment="spin 1">
       <r>   -31.2852     0.0000     0.0000 </r>
       <r>   -31.1604     0.0000     0.0000 </r>
       <r>   -31.0357     0.0000     0.0000 </r>
       <r>   -30.9110     0.0000     0.0000 </r>
       <r>   -30.7862     0.0000     0.0000 </r>
       <r>   -30.6615     0.0000     0.0000 </r>
       <r>   -30.5368     0.0000     0.0000 </r>
       <r>   -30.4120     0.0000     0.0000 </r>
       <r>   -30.2873     0.0000     0.0000 </r>
       <r>   -30.1626     0.0000     0.0000 </r>
       <r>   -30.0378     0.0000     0.0000 </r>
       <r>   -29.9131     0.0001     0.0000 </r>
       <r>   -29.7884     0.0029     0.0004 </r>
       <r>   -29.6636     0.0567     0.0074 </r>
       <r>   -29.5389     0.5239     0.0728 </r>
       <r>   -29.4142     2.3163     0.3617 </r>
       <r>   -29.2894     4.9247     0.9760 </r>
       <r>   -29.1647     5.0487     1.6057 </r>
       <r>   -29.0400     2.4959     1.9171 </r>
       <r>   -28.9152     0.5935     1.9911 </r>
       <r>   -28.7905     0.0676     1.9995 </r>
       <r>   -28.6658     0.0037     2.0000 </r>
       <r>   -28.5410     0.0001     2.0000 </r>
       <r>   -28.4163     0.0000     2.0000 </r>
       <r>   -28.2916     0.0000     2.0000 </r>
       <r>   -28.1668     0.0000     2.0000 </r>
       <r>   -28.0421     0.0000     2.0000 </r>
       <r>   -27.9174     0.0000     2.0000 </r>
       <r>   -27.7926     0.0000     2.0000 </r>
       <r>   -27.6679     0.0000     2.0000 </r>
       <r>   -27.5432     0.0000     2.0000 </r>
       <r>   -27.4184     0.0000     2.0000 </r>
       <r>   -27.2937     0.0000     2.0000 </r>
       <r>   -27.1690     0.0000     2.0000 </r>
       <r>   -27.0442     0.0000     2.0000 </r>
       <r>   -26.9195     0.0000     2.0000 </r>
       <r>   -26.7947     0.0000     2.0000 </r>
       <r>   -26.6700     0.0000     2.0000 </r>
       <r>   -26.5453     0.0000     2.0000 </r>
       <r>   -26.4205     0.0000     2.0000 </r>
       <r>   -26.2958     0.0000     2.0000 </r>
       <r>   -26.1711     0.0000     2.0000 </r>
       <r>   -26.0463     0.0000     2.0000 </r>
       <r>   -25.9216     0.0000     2.0000 </r>
       <r>   -25.7969     0.0000     2.0000 </r>
       <r>   -25.6721     0.0000     2.0000 </r>
       <r>   -25.5474     0.0000     2.0000 </r>
       <r>   -25.4227     0.0000     2.0000 </r>
       <r>   -25.2979     0.0000     2.0000 </r>
       <r>   -25.1732     0.0000     2.0000 </r>
       <r>   -25.0485     0.0000     2.0000 </r>
       <r>   -24.9237     0.0000     2.0000 </r>
       <r>   -24.7990     0.0000     2.0000 </r>
       <r>   -24.6743     0.0000     2.0000 </r>
       <r>   -24.5495     0.0000     2.0000 </r>
       <r>   -24.4248     0.0000     2.0000 </r>
       <r>   -24.3001     0.0000     2.0000 </r>
       <r>   -24.1753     0.0000     2.0000 </r>
       <r>   -24.0506     0.0000     2.0000 </r>
       <r>   -23.9259     0.0000     2.0000 </r>
       <r>   -23.8011     0.0000     2.0000 </r>
       <r>   -23.6764     0.0000     2.0000 </r>
       <r>   -23.5517     0.0000     2.0000 </r>
       <r>   -23.4269     0.0000     2.0000 </r>
       <r>   -23.3022     0.0000     2.0000 </r>
       <r>   -23.1775     0.0000     2.0000 </r>
       <r>   -23.0527     0.0000     2.0000 </r>
       <r>   -22.9280     0.0000     2.0000 </r>
       <r>   -22.8033     0.0000     2.0000 </r>
       <r>   -22.6785     0.0000     2.0000 </r>
       <r>   -22.5538     0.0000     2.0000 </r>
       <r>   -22.4291     0.0000     2.0000 </r>
       <r>   -22.3043     0.0000     2.0000 </r>
       <r>   -22.1796     0.0000     2.0000 </r>
       <r>   -22.0549     0.0000     2.0000 </r>
       <r>   -21.9301     0.0000     2.0000 </r>
       <r>   -21.8054     0.0000     2.0000 </r>
       <r>   -21.6806     0.0000     2.0000 </r>
       <r>   -21.5559     0.0000     2.0000 </r>
       <r>   -21.4312     0.0000     2.0000 </r>
       <r>   -21.3064     0.0000     2.0000 </r>
       <r>   -21.1817     0.0000     2.0000 </r>
       <r>   -21.0570     0.0000     2.0000 </r>
       <r>   -20.9322     0.0000     2.0000 </r>
       <r>   -20.8075     0.0000     2.0000 </r>
       <r>   -20.6828     0.0000     2.0000 </r>
       <r>   -20.5580     0.0000     2.0000 </r>
       <r>   -20.4333     0.0000     2.0000 </r>
       <r>   -20.3086     0.0000     2.0000 </r>
       <r>   -20.1838     0.0000     2.0000 </r>
       <r>   -20.0591     0.0000     2.0000 </r>
       <r>   -19.9344     0.0000     2.0000 </r>
       <r>   -19.8096     0.0000     2.0000 </r>
       <r>   -19.6849     0.0000     2.0000 </r>
       <r>   -19.5602     0.0000     2.0000 </r>
       <r>   -19.4354     0.0000     2.0000 </r>
       <r>   -19.3107     0.0000     2.0000 </r>
       <r>   -19.1860     0.0000     2.0000 </r>
       <r>   -19.0612     0.0000     2.0000 </r>
       <r>   -18.9365     0.0000     2.0000 </r>
       <r>   -18.8118     0.0000     2.0000 </r>
       <r>   -18.6870     0.0000     2.0000 </r>
       <r>   -18.5623     0.0000     2.0000 </r>
       <r>   -18.4376     0.0000     2.0000 </r>
       <r>   -18.3128     0.0000     2.0000 </r>
       <r>   -18.1881     0.0000     2.0000 </r>
       <r>   -18.0634     0.0000     2.0000 </r>
       <r>   -17.9386     0.0000     2.0000 </r>
       <r>   -17.8139     0.0000     2.0000 </r>
       <r>   -17.6892     0.0000     2.0000 </r>
       <r>   -17.5644     0.0000     2.0000 </r>
       <r>   -17.4397     0.0000     2.0000 </r>
       <r>   -17.3150     0.0000     2.0000 </r>
       <r>   -17.1902     0.0000     2.0000 </r>
       <r>   -17.0655     0.0000     2.0000 </r>
       <r>   -16.9408     0.0000     2.0000 </r>
       <r>   -16.8160     0.0000     2.0000 </r>
       <r>   -16.6913     0.0000     2.0000 </r>
       <r>   -16.5665     0.0000     2.0000 </r>
       <r>   -16.4418     0.0000     2.0000 </r>
       <r>   -16.3171     0.0000     2.0000 </r>
       <r>   -16.1923     0.0000     2.0000 </r>
       <r>   -16.0676     0.0000     2.0000 </r>
       <r>   -15.9429     0.0000     2.0000 </r>
       <r>   -15.8181     0.0000     2.0000 </r>
       <r>   -15.6934     0.0000     2.0000 </r>
       <r>   -15.5687     0.0000     2.0000 </r>
       <r>   -15.4439     0.0000     2.0000 </r>
       <r>   -15.3192     0.0000     2.0000 </r>
       <r>   -15.1945     0.0000     2.0000 </r>
       <r>   -15.0697     0.0000     2.0000 </r>
       <r>   -14.9450     0.0000     2.0000 </r>
       <r>   -14.8203     0.0000     2.0000 </r>
       <r>   -14.6955     0.0000     2.0000 </r>
       <r>   -14.5708     0.0000     2.0000 </r>
       <r>   -14.4461     0.0000     2.0000 </r>
       <r>   -14.3213     0.0004     2.0001 </r>
       <r>   -14.1966     0.0122     2.0016 </r>
       <r>   -14.0719     0.1692     2.0227 </r>
       <r>   -13.9471     1.1206     2.1624 </r>
       <r>   -13.8224     3.5611     2.6066 </r>
       <r>   -13.6977     5.4503     3.2865 </r>
       <r>   -13.5729     4.0238     3.7884 </r>
       <r>   -13.4482     1.4314     3.9669 </r>
       <r>   -13.3235     0.2445     3.9974 </r>
       <r>   -13.1987     0.0199     3.9999 </r>
       <r>   -13.0740     0.0008     4.0000 </r>
       <r>   -12.9493     0.0000     4.0000 </r>
       <r>   -12.8245     0.0000     4.0000 </r>
       <r>   -12.6998     0.0000     4.0000 </r>
       <r>   -12.5751     0.0000     4.0000 </r>
       <r>   -12.4503     0.0000     4.0000 </r>
       <r>   -12.3256     0.0000     4.0000 </r>
       <r>   -12.2009     0.0013     4.0002 </r>
       <r>   -12.0761     0.0340     4.0044 </r>
       <r>   -11.9514     0.4339     4.0585 </r>
       <r>   -11.8266     2.6463     4.3886 </r>
       <r>   -11.7019     7.7468     5.3549 </r>
       <r>   -11.5772    10.9253     6.7177 </r>
       <r>   -11.4524     7.4324     7.6447 </r>
       <r>   -11.3277     2.4355     7.9485 </r>
       <r>   -11.2030     0.3830     7.9963 </r>
       <r>   -11.0782     0.0287     7.9999 </r>
       <r>   -10.9535     0.0010     8.0000 </r>
       <r>   -10.8288     0.0000     8.0000 </r>
       <r>   -10.7040     0.0000     8.0000 </r>
       <r>   -10.5793     0.0000     8.0000 </r>
       <r>   -10.4546     0.0000     8.0000 </r>
       <r>   -10.3298     0.0000     8.0000 </r>
       <r>   -10.2051     0.0000     8.0000 </r>
       <r>   -10.0804     0.0000     8.0000 </r>
       <r>    -9.9556     0.0000     8.0000 </r>
       <r>    -9.8309     0.0000     8.0000 </r>
       <r>    -9.7062     0.0000     8.0000 </r>
       <r>    -9.5814     0.0000     8.0000 </r>
       <r>    -9.4567     0.0000     8.0000 </r>
       <r>    -9.3320     0.0001     8.0000 </r>
       <r>    -9.2072     0.0046     8.0006 </r>
       <r>    -9.0825     0.0805     8.0106 </r>
       <r>    -8.9578     0.6715     8.0944 </r>
       <r>    -8.8330     2.6837     8.4291 </r>
       <r>    -8.7083     5.1601     9.0728 </r>
       <r>    -8.5836     4.7849     9.6696 </r>
       <r>    -8.4588     2.1392     9.9365 </r>
       <r>    -8.3341     0.4598     9.9938 </r>
       <r>    -8.2094     0.0473     9.9997 </r>
       <r>    -8.0846     0.0023    10.0000 </r>
       <r>    -7.9599     0.0001    10.0000 </r>
       <r>    -7.8352     0.0000    10.0000 </r>
       <r>    -7.7104     0.0000    10.0000 </r>
       <r>    -7.5857     0.0000    10.0000 </r>
       <r>    -7.4610     0.0000    10.0000 </r>
       <r>    -7.3362     0.0000    10.0000 </r>
       <r>    -7.2115     0.0000    10.0000 </r>
       <r>    -7.0868     0.0000    10.0000 </r>
       <r>    -6.9620     0.0000    10.0000 </r>
       <r>    -6.8373     0.0000    10.0000 </r>
       <r>    -6.7125     0.0000    10.0000 </r>
       <r>    -6.5878     0.0000    10.0000 </r>
       <r>    -6.4631     0.0000    10.0000 </r>
       <r>    -6.3383     0.0000    10.0000 </r>
       <r>    -6.2136     0.0000    10.0000 </r>
       <r>    -6.0889     0.0000    10.0000 </r>
       <r>    -5.9641     0.0000    10.0000 </r>
       <r>    -5.8394     0.0000    10.0000 </r>
       <r>    -5.7147     0.0000    10.0000 </r>
       <r>    -5.5899     0.0000    10.0000 </r>
       <r>    -5.4652     0.0000    10.0000 </r>
       <r>    -5.3405     0.0000    10.0000 </r>
       <r>    -5.2157     0.0000    10.0000 </r>
       <r>    -5.0910     0.0000    10.0000 </r>
       <r>    -4.9663     0.0000    10.0000 </r>
       <r>    -4.8415     0.0000    10.0000 </r>
       <r>    -4.7168     0.0000    10.0000 </r>
       <r>    -4.5921     0.0000    10.0000 </r>
       <r>    -4.4673     0.0000    10.0000 </r>
       <r>    -4.3426     0.0000    10.0000 </r>
       <r>    -4.2179     0.0000    10.0000 </r>
       <r>    -4.0931     0.0000    10.0000 </r>
       <r>    -3.9684     0.0000    10.0000 </r>
       <r>    -3.8437     0.0000    10.0000 </r>
       <r>    -3.7189     0.0000    10.0000 </r>
       <r>    -3.5942     0.0000    10.0000 </r>
       <r>    -3.4695     0.0000    10.0000 </r>
       <r>    -3.3447     0.0000    10.0000 </r>
       <r>    -3.2200     0.0000    10.0000 </r>
       <r>    -3.0953     0.0000    10.0000 </r>
       <r>    -2.9705     0.0000    10.0000 </r>
       <r>    -2.8458     0.0000    10.0000 </r>
       <r>    -2.7211     0.0000    10.0000 </r>
       <r>    -2.5963     0.0000    10.0000 </r>
       <r>    -2.4716     0.0000    10.0000 </r>
       <r>    -2.3469     0.0000    10.0000 </r>
       <r>    -2.2221     0.0010    10.0001 </r>
       <r>    -2.0974     0.0290    10.0038 </r>
       <r>    -1.9727     0.3859    10.0519 </r>
       <r>    -1.8479     2.4480    10.3572 </r>
       <r>    -1.7232     7.4516    11.2867 </r>
       <r>    -1.5984    10.9260    12.6496 </r>
       <r>    -1.4737     7.7278    13.6135 </r>
       <r>    -1.3490     2.6332    13.9419 </r>
       <r>    -1.2242     0.4307    13.9956 </r>
       <r>    -1.0995     0.0336    13.9998 </r>
       <r>    -0.9748     0.0013    14.0000 </r>
       <r>    -0.8500     0.0002    14.0000 </r>
       <r>    -0.7253     0.0073    14.0009 </r>
       <r>    -0.6006     0.1150    14.0153 </r>
       <r>    -0.4758     0.8614    14.1227 </r>
       <r>    -0.3511     3.0916    14.5084 </r>
       <r>    -0.2264     5.3413    15.1746 </r>
       <r>    -0.1016     4.4511    15.7298 </r>
       <r>     0.0231     1.7879    15.9528 </r>
       <r>     0.1478     0.3450    15.9959 </r>
       <r>     0.2726     0.0318    15.9998 </r>
       <r>     0.3973     0.0014    16.0000 </r>
       <r>     0.5220     0.0000    16.0000 </r>
       <r>     0.6468     0.0000    16.0000 </r>
       <r>     0.7715     0.0000    16.0000 </r>
       <r>     0.8962     0.0000    16.0000 </r>
       <r>     1.0210     0.0000    16.0000 </r>
       <r>     1.1457     0.0007    16.0001 </r>
       <r>     1.2704     0.0181    16.0023 </r>
       <r>     1.3952     0.2401    16.0323 </r>
       <r>     1.5199     1.6428    16.2372 </r>
       <r>     1.6446     6.3631    17.0309 </r>
       <r>     1.7694    15.4061    18.9526 </r>
       <r>     1.8941    23.4819    21.8816 </r>
       <r>     2.0188    20.6951    24.4629 </r>
       <r>     2.1436     9.7737    25.6821 </r>
       <r>     2.2683     2.8888    26.0424 </r>
       <r>     2.3930     2.7057    26.3799 </r>
       <r>     2.5178     5.0206    27.0061 </r>
       <r>     2.6425     4.9728    27.6264 </r>
       <r>     2.7672     2.3824    27.9236 </r>
       <r>     2.8920     0.5490    27.9920 </r>
       <r>     3.0167     0.0606    27.9996 </r>
       <r>     3.1415     0.0040    28.0001 </r>
       <r>     3.2662     0.0207    28.0027 </r>
       <r>     3.3909     0.2503    28.0339 </r>
       <r>     3.5157     1.4536    28.2152 </r>
       <r>     3.6404     4.0570    28.7212 </r>
       <r>     3.7651     5.5140    29.4090 </r>
       <r>     3.8899     4.1236    29.9234 </r>
       <r>     4.0146     3.5978    30.3722 </r>
       <r>     4.1393     5.2137    31.0225 </r>
       <r>     4.2641     4.9365    31.6382 </r>
       <r>     4.3888     2.3167    31.9272 </r>
       <r>     4.5135     0.5239    31.9926 </r>
       <r>     4.6383     0.0567    31.9996 </r>
       <r>     4.7630     0.0029    32.0000 </r>
       <r>     4.8877     0.0001    32.0000 </r>
       <r>     5.0125     0.0000    32.0000 </r>
       <r>     5.1372     0.0000    32.0000 </r>
       <r>     5.2619     0.0000    32.0000 </r>
       <r>     5.3867     0.0000    32.0000 </r>
       <r>     5.5114     0.0000    32.0000 </r>
       <r>     5.6361     0.0000    32.0000 </r>
       <r>     5.7609     0.0000    32.0000 </r>
       <r>     5.8856     0.0000    32.0000 </r>
       <r>     6.0103     0.0000    32.0000 </r>
       <r>     6.1351     0.0000    32.0000 </r>
      </set>
     </set>
    </array>
   </total>
  </dos>
 </calculation>
 <structure name="finalpos" >
  <crystal>
   <varray name="basis" >
    <v>       8.00000000       0.00000000       0.00000000 </v>
    <v>       0.00000000       8.00000000       0.00000000 </v>
    <v>       0.00000000       0.00000000       8.00000000 </v>
   </varray>
   <i name="volume">    512.00000000 </i>
   <varray name="rec_basis" >
    <v>       0.12500000       0.00000000       0.00000000 </v>
    <v>       0.00000000       0.12500000       0.00000000 </v>
    <v>       0.00000000       0.00000000       0.12500000 </v>
   </varray>
  </crystal>
  <varray name="positions" >
   <v>       0.00000000       0.00000000       0.00000000 </v>
   <v>       0.00000000       0.00000000       0.14037500 </v>
  </varray>
  <varray name="selective"  type="logical" >
   <v type="logical" >  F  F  T </v>
   <v type="logical" >  F  F  T </v>
  </varray>
  <nose>
   <v>      -3.00000000       0.00000000       0.00010000       0.00010000 </v>
  </nose>
 </structure>
</modeling>
